
                                 *****************
                                 * O   R   C   A *
                                 *****************

           --- An Ab Initio, DFT and Semiempirical electronic structure package ---

                  #######################################################
                  #                        -***-                        #
                  #  Department of molecular theory and spectroscopy    #
                  #              Directorship: Frank Neese              #
                  # Max Planck Institute for Chemical Energy Conversion #
                  #                  D-45470 Muelheim/Ruhr              #
                  #                       Germany                       #
                  #                                                     #
                  #                  All rights reserved                #
                  #                        -***-                        #
                  #######################################################


                         Program Version 4.0.1.2 - RELEASE -


 With contributions from (in alphabetic order):
   Daniel Aravena         : Magnetic Properties
   Michael Atanasov       : Ab Initio Ligand Field Theory
   Ute Becker             : Parallelization
   Martin Brehm           : Molecular dynamics
   Dmytro Bykov           : SCF Hessian
   Vijay G. Chilkuri      : MRCI spin determinant printing
   Dipayan Datta          : RHF DLPNO-CCSD density
   Achintya Kumar Dutta   : EOM-CC, STEOM-CC
   Dmitry Ganyushin       : Spin-Orbit,Spin-Spin,Magnetic field MRCI
   Yang Guo               : DLPNO-NEVPT2, CIM, IAO-localization
   Andreas Hansen         : Spin unrestricted coupled pair/coupled cluster methods
   Lee Huntington         : MR-EOM, pCC
   Robert Izsak           : Overlap fitted RIJCOSX, COSX-SCS-MP3, EOM
   Christian Kollmar      : KDIIS, OOCD, Brueckner-CCSD(T), CCSD density
   Simone Kossmann        : Meta GGA functionals, TD-DFT gradient, OOMP2, MP2 Hessian
   Martin Krupicka        : AUTO-CI
   Dagmar Lenk            : GEPOL surface
   Dimitrios Liakos       : Extrapolation schemes; parallel MDCI
   Dimitrios Manganas     : ROCIS; embedding schemes
   Dimitrios Pantazis     : SARC Basis sets
   Taras Petrenko         : DFT Hessian,TD-DFT gradient, ASA, ECA, R-Raman, ABS, FL, XAS/XES, NRVS
   Peter Pinski           : DLPNO-MP2
   Christoph Reimann      : Effective Core Potentials
   Marius Retegan         : Local ZFS, SOC
   Christoph Riplinger    : Optimizer, TS searches, QM/MM, DLPNO-CCSD(T), (RO)-DLPNO pert. Triples
   Tobias Risthaus        : Range-separated hybrids, TD-DFT gradient, RPA, STAB
   Michael Roemelt        : Restricted open shell CIS
   Masaaki Saitow         : Open-shell DLPNO
   Barbara Sandhoefer     : DKH picture change effects
   Kantharuban Sivalingam : CASSCF convergence, NEVPT2, FIC-MRCI
   Georgi Stoychev        : AutoAux
   Boris Wezisla          : Elementary symmetry handling
   Frank Wennmohs         : Technical directorship


 We gratefully acknowledge several colleagues who have allowed us to
 interface, adapt or use parts of their codes:
   Stefan Grimme, W. Hujo, H. Kruse,             : VdW corrections, initial TS optimization,
                  C. Bannwarth                     DFT functionals, gCP, sTDA/sTD-DF
   Ed Valeev                                     : LibInt (2-el integral package), F12 methods
   Garnet Chan, S. Sharma, J. Yang, R. Olivares  : DMRG
   Ulf Ekstrom                                   : XCFun DFT Library
   Mihaly Kallay                                 : mrcc  (arbitrary order and MRCC methods)
   Andreas Klamt, Michael Diedenhofen            : otool_cosmo (COSMO solvation model)
   Jiri Pittner, Ondrej Demel                    : Mk-CCSD
   Frank Weinhold                                : gennbo (NPA and NBO analysis)
   Christopher J. Cramer and Donald G. Truhlar   : smd solvation model


 Your calculation uses the libint2 library for the computation of 2-el integrals
 For citations please refer to: http://libint.valeyev.net

 This ORCA versions uses:
   CBLAS   interface :  Fast vector & matrix operations
   LAPACKE interface :  Fast linear algebra routines
   SCALAPACK package :  Parallel linear algebra routines




*****************************************
The coordinations will be read from file: Fe4S4_last_step.xyz
*****************************************


Your calculation utilizes the basis: SV 

Your calculation utilizes the auxiliary basis: def2/J
   F. Weigend, Phys. Chem. Chem. Phys. 8, 1057 (2006).

================================================================================
                                        WARNINGS
                       Please study these warnings very carefully!
================================================================================

Warning: TCutStore was < 0. Adjusted to Thresh (uncritical)

INFO   : the flag for use of LIBINT has been found!

================================================================================
                                       INPUT FILE
================================================================================
NAME = Fe4S4.inp
|  1> %pal nprocs 18 end
|  2> 
|  3> ! engrad uks b3lyp sv rijcosx grid5 tightscf printbasis slowconv
|  4> 
|  5> %scf
|  6> maxiter=1500
|  7> diismaxeq 40
|  8> directresetfreq 1
|  9> end
| 10> 
| 11> %basis
| 12> newgto Fe "def2-tzvp" end
| 13> newgto S "def2-tzvp" end
| 14> #newauxgto Fe "def2-tzvp/j" end
| 15> #newauxgto S "def2-tzvp/j" end
| 16> end
| 17> 
| 18> * xyzfile 0 21 Fe4S4_last_step.xyz
| 19> 
| 20> 
| 21>                          ****END OF INPUT****
================================================================================

                     *******************************
                     * Energy+Gradient Calculation *
                     *******************************

---------------------------------
CARTESIAN COORDINATES (ANGSTROEM)
---------------------------------
  Fe     3.434815   10.026218    0.936669
  Fe     4.110044   12.433908    2.679360
  Fe     2.044668   10.121187    3.578148
  Fe     4.982488    9.771733    3.751451
  Si     2.266530   10.198649   -2.078124
  Si     4.283918    7.906181   -1.303505
  Si     5.836850   14.711764    1.250526
  Si     3.637266   15.540257    3.381943
  Si    -0.482602   10.460963    5.565855
  Si    -0.379451    8.093975    3.469619
  Si     5.777219    7.797316    6.129399
  Si     8.015191    9.323220    4.423732
  S      2.041866   11.654054    1.722364
  S      5.544948   10.907457    1.749949
  S      3.323659    8.423701    2.719044
  S      3.691524   11.367233    4.784212
  N      3.306400    9.373279   -0.822274
  N      4.530628   14.258576    2.448293
  N      0.378541    9.567048    4.237718
  N      6.284507    8.930876    4.807920
  C      0.693608   11.014541   -1.357785
  H      0.153098   10.320874   -0.686985
  H      0.018398   11.268094   -2.199172
  H      0.895839   11.940915   -0.793933
  C      3.324777   11.511014   -2.980935
  H      3.758230   12.239520   -2.270074
  H      2.709440   12.070407   -3.713359
  H      4.161905   11.038952   -3.528977
  C      1.593680    8.967618   -3.385638
  H      2.377448    8.415214   -3.933121
  H      1.010914    9.546024   -4.130519
  H      0.909254    8.229633   -2.926578
  C      3.149351    6.379032   -1.514963
  H      2.587762    6.171624   -0.584092
  H      3.767516    5.488802   -1.747785
  H      2.415106    6.503213   -2.330002
  C      5.602532    7.439426   -0.002210
  H      6.278297    8.278489    0.242952
  H      6.222735    6.620848   -0.419508
  H      5.154117    7.076096    0.940175
  C      5.234918    8.207686   -2.941395
  H      4.570243    8.359025   -3.810979
  H      5.869148    7.324960   -3.156072
  H      5.900915    9.088324   -2.862448
  C      5.905755   16.589294    0.850641
  H      5.021097   16.933361    0.284720
  H      6.792134   16.757442    0.206530
  H      6.019915   17.233537    1.740760
  C      7.566555   14.258377    1.932308
  H      7.754031   14.757824    2.902515
  H      8.348566   14.591323    1.221748
  H      7.685306   13.171391    2.083735
  C      5.521848   13.866654   -0.437929
  H      5.532472   12.764622   -0.378020
  H      6.302343   14.173773   -1.161577
  H      4.541733   14.181602   -0.844572
  C      4.851225   16.549247    4.469871
  H      5.371683   15.884649    5.186518
  H      4.292165   17.306911    5.054413
  H      5.621680   17.078981    3.880366
  C      2.654730   16.702321    2.215739
  H      3.300940   17.327002    1.575203
  H      2.024174   17.381871    2.823767
  H      1.984069   16.116594    1.558038
  C      2.350272   14.774690    4.567741
  H      1.615133   14.142323    4.035592
  H      1.791074   15.593117    5.064034
  H      2.823323   14.162302    5.356031
  C      0.676971   11.645006    6.513573
  H      1.509652   11.101122    6.997849
  H      0.088941   12.145643    7.309235
  H      1.113051   12.432487    5.874370
  C     -1.902663   11.501722    4.815242
  H     -1.505166   12.210679    4.063537
  H     -2.410624   12.091481    5.604821
  H     -2.662676   10.872355    4.318124
  C     -1.164702    9.259749    6.896549
  H     -1.912500    8.544271    6.511733
  H     -1.648250    9.850525    7.700320
  H     -0.341671    8.677219    7.354601
  C      0.264437    6.487650    4.286322
  H      1.357796    6.381974    4.160414
  H     -0.221628    5.607011    3.821626
  H      0.041824    6.468820    5.370478
  C     -0.055767    8.040513    1.586745
  H     -0.325074    9.007184    1.120308
  H     -0.701816    7.260688    1.137808
  H      0.987934    7.807772    1.318040
  C     -2.292125    8.097443    3.591633
  H     -2.687025    8.112754    4.622188
  H     -2.663932    7.171972    3.108107
  H     -2.730072    8.951786    3.042290
  C      3.876067    7.799094    6.332802
  H      3.490727    8.799821    6.603373
  H      3.610484    7.105428    7.155219
  H      3.340758    7.459214    5.429015
  C      6.339490    6.012023    5.716425
  H      5.939805    5.690220    4.735950
  H      5.964464    5.307232    6.484777
  H      7.441490    5.917359    5.683559
  C      6.465082    8.299691    7.847118
  H      7.546273    8.102405    7.958286
  H      5.935293    7.720119    8.629153
  H      6.286464    9.374197    8.045779
  C      8.479683    8.624458    2.705211
  H      8.384632    7.521584    2.682900
  H      9.525889    8.885507    2.449354
  H      7.824177    9.033809    1.915634
  C      9.247421    8.626717    5.710668
  H      9.147370    9.133998    6.687602
  H     10.275520    8.813261    5.340017
  H      9.145323    7.537799    5.875065
  C      8.230575   11.220343    4.438894
  H      7.533490   11.722142    3.745719
  H      9.258805   11.501828    4.136712
  H      8.044892   11.624270    5.452898

----------------------------
CARTESIAN COORDINATES (A.U.)
----------------------------
  NO LB      ZA    FRAG     MASS         X           Y           Z
   0 Fe   26.0000    0    55.850    6.490859   18.946807    1.770048
   1 Fe   26.0000    0    55.850    7.766857   23.496682    5.063257
   2 Fe   26.0000    0    55.850    3.863862   19.126271    6.761719
   3 Fe   26.0000    0    55.850    9.415538   18.465899    7.089215
   4 Si   14.0000    0    28.086    4.283120   19.272653   -3.927085
   5 Si   14.0000    0    28.086    8.095432   14.940516   -2.463267
   6 Si   14.0000    0    28.086   11.030048   27.801206    2.363152
   7 Si   14.0000    0    28.086    6.873437   29.366829    6.390946
   8 Si   14.0000    0    28.086   -0.911986   19.768356   10.517942
   9 Si   14.0000    0    28.086   -0.717058   15.295396    6.556629
  10 Si   14.0000    0    28.086   10.917363   14.734791   11.582886
  11 Si   14.0000    0    28.086   15.146516   17.618333    8.359641
  12 S    16.0000    0    32.060    3.858567   22.022971    3.254796
  13 S    16.0000    0    32.060   10.478434   20.612106    3.306924
  14 S    16.0000    0    32.060    6.280806   15.918487    5.138249
  15 S    16.0000    0    32.060    6.975969   21.480957    9.040850
  16 N     7.0000    0    14.007    6.248190   17.712931   -1.553872
  17 N     7.0000    0    14.007    8.561647   26.944803    4.626603
  18 N     7.0000    0    14.007    0.715339   18.079101    8.008126
  19 N     7.0000    0    14.007   11.875997   16.876911    9.085652
  20 C     6.0000    0    12.011    1.310728   20.814466   -2.565842
  21 H     1.0000    0     1.008    0.289313   19.503624   -1.298213
  22 H     1.0000    0     1.008    0.034767   21.293613   -4.155832
  23 H     1.0000    0     1.008    1.692890   22.565059   -1.500317
  24 C     6.0000    0    12.011    6.282919   21.752665   -5.633151
  25 H     1.0000    0     1.008    7.102026   23.129340   -4.289818
  26 H     1.0000    0     1.008    5.120100   22.809764   -7.017232
  27 H     1.0000    0     1.008    7.864860   20.860596   -6.668799
  28 C     6.0000    0    12.011    3.011620   16.946342   -6.397929
  29 H     1.0000    0     1.008    4.492725   15.902450   -7.432521
  30 H     1.0000    0     1.008    1.910351   18.039371   -7.805549
  31 H     1.0000    0     1.008    1.718242   15.551753   -5.530431
  32 C     6.0000    0    12.011    5.951411   12.054624   -2.862866
  33 H     1.0000    0     1.008    4.890162   11.662679   -1.103774
  34 H     1.0000    0     1.008    7.119573   10.372333   -3.302835
  35 H     1.0000    0     1.008    4.563890   12.289292   -4.403066
  36 C     6.0000    0    12.011   10.587251   14.058478   -0.004177
  37 H     1.0000    0     1.008   11.864261   15.644078    0.459112
  38 H     1.0000    0     1.008   11.759265   12.511590   -0.792756
  39 H     1.0000    0     1.008    9.739869   13.371884    1.776674
  40 C     6.0000    0    12.011    9.892561   15.510278   -5.558432
  41 H     1.0000    0     1.008    8.636508   15.796269   -7.201707
  42 H     1.0000    0     1.008   11.091082   13.842168   -5.964112
  43 H     1.0000    0     1.008   11.151113   17.174444   -5.409243
  44 C     6.0000    0    12.011   11.160260   31.349222    1.607479
  45 H     1.0000    0     1.008    9.488499   31.999415    0.538042
  46 H     1.0000    0     1.008   12.835274   31.666976    0.390286
  47 H     1.0000    0     1.008   11.375990   32.566665    3.289560
  48 C     6.0000    0    12.011   14.298717   26.944428    3.651533
  49 H     1.0000    0     1.008   14.652995   27.888246    5.484958
  50 H     1.0000    0     1.008   15.776504   27.573604    2.308770
  51 H     1.0000    0     1.008   14.523123   24.890323    3.937688
  52 C     6.0000    0    12.011   10.434780   26.204178   -0.827566
  53 H     1.0000    0     1.008   10.454857   24.121640   -0.714355
  54 H     1.0000    0     1.008   11.909703   26.784549   -2.195063
  55 H     1.0000    0     1.008    8.582632   26.799344   -1.596009
  56 C     6.0000    0    12.011    9.167487   31.273545    8.446832
  57 H     1.0000    0     1.008   10.151010   30.017637    9.801098
  58 H     1.0000    0     1.008    8.111017   32.705322    9.551457
  59 H     1.0000    0     1.008   10.623436   32.274597    7.332829
  60 C     6.0000    0    12.011    5.016712   31.562813    4.187139
  61 H     1.0000    0     1.008    6.237873   32.743288    2.976702
  62 H     1.0000    0     1.008    3.825134   32.846976    5.336146
  63 H     1.0000    0     1.008    3.749347   30.455949    2.944265
  64 C     6.0000    0    12.011    4.441370   27.920118    8.631779
  65 H     1.0000    0     1.008    3.052159   26.725117    7.626164
  66 H     1.0000    0     1.008    3.384639   29.466721    9.569637
  67 H     1.0000    0     1.008    5.335308   26.762872   10.121432
  68 C     6.0000    0    12.011    1.279289   22.005872   12.308870
  69 H     1.0000    0     1.008    2.852829   20.978080   13.224018
  70 H     1.0000    0     1.008    0.168074   22.951939   13.812453
  71 H     1.0000    0     1.008    2.103362   23.493995   11.100950
  72 C     6.0000    0    12.011   -3.595512   21.735105    9.099489
  73 H     1.0000    0     1.008   -2.844352   23.074839    7.678971
  74 H     1.0000    0     1.008   -4.555419   22.849587   10.591576
  75 H     1.0000    0     1.008   -5.031729   20.545772    8.160073
  76 C     6.0000    0    12.011   -2.200968   17.498390   13.032588
  77 H     1.0000    0     1.008   -3.614102   16.146332   12.305392
  78 H     1.0000    0     1.008   -3.114741   18.614795   14.551497
  79 H     1.0000    0     1.008   -0.645664   16.397567   13.898182
  80 C     6.0000    0    12.011    0.499713   12.259882    8.099975
  81 H     1.0000    0     1.008    2.565862   12.060184    7.862042
  82 H     1.0000    0     1.008   -0.418816   10.595716    7.221827
  83 H     1.0000    0     1.008    0.079036   12.224298   10.148732
  84 C     6.0000    0    12.011   -0.105384   15.194367    2.998514
  85 H     1.0000    0     1.008   -0.614301   17.021110    2.117076
  86 H     1.0000    0     1.008   -1.326240   13.720712    2.150146
  87 H     1.0000    0     1.008    1.866924   14.754551    2.490735
  88 C     6.0000    0    12.011   -4.331489   15.301950    6.787202
  89 H     1.0000    0     1.008   -5.077741   15.330883    8.734670
  90 H     1.0000    0     1.008   -5.034103   13.553064    5.873471
  91 H     1.0000    0     1.008   -5.159087   16.916424    5.749095
  92 C     6.0000    0    12.011    7.324705   14.738153   11.967261
  93 H     1.0000    0     1.008    6.596519   16.629251   12.478567
  94 H     1.0000    0     1.008    6.822826   13.427314   13.521404
  95 H     1.0000    0     1.008    6.313118   14.095872   10.259351
  96 C     6.0000    0    12.011   11.979900   11.361078   10.802479
  97 H     1.0000    0     1.008   11.224605   10.752957    8.949649
  98 H     1.0000    0     1.008   11.271204   10.029216   12.254453
  99 H     1.0000    0     1.008   14.062377   11.182188   10.740369
 100 C     6.0000    0    12.011   12.217235   15.684142   14.828903
 101 H     1.0000    0     1.008   14.260389   15.311326   15.038982
 102 H     1.0000    0     1.008   11.216077   14.588910   16.306737
 103 H     1.0000    0     1.008   11.879695   17.714665   15.204319
 104 C     6.0000    0    12.011   16.024279   16.297864    5.112107
 105 H     1.0000    0     1.008   15.844658   14.213733    5.069946
 106 H     1.0000    0     1.008   18.001322   16.791174    4.628609
 107 H     1.0000    0     1.008   14.785552   17.071426    3.620024
 108 C     6.0000    0    12.011   17.475093   16.302132   10.791599
 109 H     1.0000    0     1.008   17.286024   17.260755   12.637735
 110 H     1.0000    0     1.008   19.417919   16.654650   10.091169
 111 H     1.0000    0     1.008   17.282156   14.244376   11.102264
 112 C     6.0000    0    12.011   15.553533   21.203376    8.388294
 113 H     1.0000    0     1.008   14.236233   22.151637    7.078382
 114 H     1.0000    0     1.008   17.496606   21.735306    7.817253
 115 H     1.0000    0     1.008   15.202642   21.966687   10.304485

--------------------------------
INTERNAL COORDINATES (ANGSTROEM)
--------------------------------
 Fe     0   0   0     0.000000000000     0.00000000     0.00000000
 Fe     1   0   0     3.047930073453     0.00000000     0.00000000
 Fe     1   2   0     2.986458755665    64.67747461     0.00000000
 Fe     3   1   2     2.963602874170    65.57754169   294.15122095
 Si     1   2   3     3.237838783705   124.76712303   123.51546271
 Si     5   1   2     3.150444320515    60.08313489   144.10170391
 Si     2   1   3     3.195630510888   115.28603689   189.09655453
 Si     7   2   1     3.172933579822    60.73624488   144.92718160
 Si     3   1   2     3.233190630459   155.63823926   110.12209307
 Si     3   1   2     3.161916565637   107.82563339   163.92172740
 Si     4   3   1     3.191325789495   111.30835884   217.41936009
 Si     4   3   1     3.138536593510   170.84070875   188.57421077
 S      1   2   3     2.281988985314    51.30832526    60.82072701
 S      2   1   3     2.291901304926    51.73647079   124.93366809
 S      3   1   2     2.292452148172    52.06915493   234.63244696
 S      4   3   1     2.297565388988    52.22270170   126.48472703
 N      6   5   1     1.827430710791    30.46170783     1.06059397
 N      8   7   2     1.820028797497    29.68625370     0.50600009
 N      9   3   1     1.817855836225    29.41025734    64.00101908
 N     11   4   3     1.813452228679    30.67793743   185.01499523
 C      5   1   2     1.912760206223    88.21080587   295.40819602
 H     21   5   1     1.106028163279   111.26929845   296.14684475
 H     21   5   1     1.108209833940   108.22199826   177.84664392
 H     21   5   1     1.103175237188   113.57366026    58.04517097
 C      5   1   2     1.912396447400   106.04804688    45.59565286
 H     25   5   1     1.106311298578   111.42968867   334.22549370
 H     25   5   1     1.108153992440   110.55831311   214.04727317
 H     25   5   1     1.106333921945   111.08504673    94.22392431
 C      5   1   2     1.917747520068   136.65556771   186.76176424
 H     29   5   1     1.104164091590   114.21467559   280.99301440
 H     29   5   1     1.108610402700   107.91612838   161.50362244
 H     29   5   1     1.106253277211   111.24572370    43.73947339
 C      6   5   1     1.914193889755   100.01042742   115.01506930
 H     33   6   5     1.106761745011   110.93744908   272.73421144
 H     33   6   5     1.108532269722   109.47355878   153.63427381
 H     33   6   5     1.104003922428   112.70669561    33.63611111
 C      6   5   1     1.910489323093   141.92634784   340.43459999
 H     37   6   5     1.104893375043   112.81363804   316.39720516
 H     37   6   5     1.108539670498   108.06836873   197.58222197
 H     37   6   5     1.105068031824   112.40285691    78.77958827
 C      6   5   1     1.917809100758    89.60742929   224.21198983
 H     41   6   5     1.104930728536   113.28907732   317.35965496
 H     41   6   5     1.107943732845   108.91013387   197.76642641
 H     41   6   5     1.106936813161   111.25451452    79.26380575
 C      7   2   1     1.920877936823   144.01609363   126.41897082
 H     45   7   2     1.105110667185   112.47046846   302.40308956
 H     45   7   2     1.108522071186   107.33211207   184.76676097
 H     45   7   2     1.104713830923   113.95280475    66.13422835
 C      7   2   1     1.913705052148    99.22096797   260.43274659
 H     49   7   2     1.107201688409   110.99925104   272.25053690
 H     49   7   2     1.107830754425   109.77424217   153.08206688
 H     49   7   2     1.103888453943   112.29592802    33.00617907
 C      7   2   1     1.914240891244    89.47112347    11.63064629
 H     53   7   2     1.103709946674   113.03873767   322.20745949
 H     53   7   2     1.107773723741   109.74635452   201.85151419
 H     53   7   2     1.106876223484   110.12921663    83.38092548
 C      8   7   2     1.917119188221    94.56902317   125.30172756
 H     57   8   7     1.107316115157   110.42686509   274.64196400
 H     57   8   7     1.108283549086   109.85786782   155.84228287
 H     57   8   7     1.105321410540   113.01429337    35.44121309
 C      8   7   2     1.917238577156    96.02263386   236.53670135
 H     61   8   7     1.103675581195   113.32981465   319.03213215
 H     61   8   7     1.108642017536   109.23207496   198.93055172
 H     61   8   7     1.106992448760   110.55881149    80.47250808
 C      8   7   2     1.910121210422   141.21042477     1.50173292
 H     65   8   7     1.106118899786   112.22659140   301.91378051
 H     65   8   7     1.108527012632   108.77871268   182.98212759
 H     65   8   7     1.104626398822   112.12755104    63.84030587
 C      9   3   1     1.909119291833    84.00700411   228.62243021
 H     69   9   3     1.106205711239   111.69033668   291.07675941
 H     69   9   3     1.108825258769   108.30830433   172.41343937
 H     69   9   3     1.104025850123   113.25841527    53.10814655
 C      9   3   1     1.913941443212   113.32837571   335.60525730
 H     73   9   3     1.107106743724   110.37174297   333.24101183
 H     73   9   3     1.108726135443   110.48014049   213.98407483
 H     73   9   3     1.104920581931   112.15167236    93.49792167
 C      9   3   1     1.918051411260   129.69356989   123.98918654
 H     77   9   3     1.104171497269   113.88258056   270.94080279
 H     77   9   3     1.108550256507   108.92911088   150.82782892
 H     77   9   3     1.107489731905   110.61415480    32.59635660
 C     10   3   1     1.913602603432   105.40076465    97.06416702
 H     81  10   3     1.105646385105   111.36873196   331.59423205
 H     81  10   3     1.108027825642   109.91112427   211.86777016
 H     81  10   3     1.106934612843   111.38399918    92.21135420
 C     10   3   1     1.911240874869    85.52112255   347.66460537
 H     85  10   3     1.106590629735   110.46286322   290.80235566
 H     85  10   3     1.107722899012   108.67396245   172.98836767
 H     85  10   3     1.102579555547   113.97307773    52.83678209
 C     10   3   1     1.916565556484   139.61952875   242.19303250
 H     89  10   3     1.103732101481   114.61547646   278.19290552
 H     89  10   3     1.108392458933   107.78721882   158.70434928
 H     89  10   3     1.106108155784   111.40208454    41.38181659
 C     11   4   3     1.912002973193    80.27480664   359.28841951
 H     93  11   4     1.105960686119   111.91999923   296.02715812
 H     93  11   4     1.108186474123   108.46119133   177.55265507
 H     93  11   4     1.104040216986   113.24972821    58.46968067
 C     11   4   3     1.916758653512   119.25899136   105.00364614
 H     97  11   4     1.106633616364   110.84214589   335.87414368
 H     97  11   4     1.108034036829   110.10592648   216.57461812
 H     97  11   4     1.106546067851   112.22349418    96.67986106
 C     11   4   3     1.917313449710   126.49800160   257.58628525
 H    101  11   4     1.104650959094   113.23539110   254.72797360
 H    101  11   4     1.108224167451   108.88484650   134.99709490
 H    101  11   4     1.107219231934   110.92515613    16.66752854
 C     12   4  20     1.912416308666    95.41807082   119.57859433
 H    105  12   4     1.107187798172   111.17481062   268.70556780
 H    105  12   4     1.108222042693   110.52929372   148.62425927
 H    105  12   4     1.104847365312   111.26693007    28.72485014
 C     12   4  20     1.913037197008   144.93778942   346.26380994
 H    109  12   4     1.105325165933   111.66507900   299.87270957
 H    109  12   4     1.108678993333   108.12824634   181.69469983
 H    109  12   4     1.105980474805   113.51562998    62.49700754
 C     12   4  20     1.909370619125    88.20706977   229.54773301
 H    113  12   4     1.103731085036   112.05467666   329.47960446
 H    113  12   4     1.108063535701   110.78822173   209.53096860
 H    113  12   4     1.107176596479   110.53872783    89.56926469

---------------------------
INTERNAL COORDINATES (A.U.)
---------------------------
 Fe     0   0   0     0.000000000000     0.00000000     0.00000000
 Fe     1   0   0     5.759753114170     0.00000000     0.00000000
 Fe     1   2   0     5.643589158458    64.67747461     0.00000000
 Fe     3   1   2     5.600397801884    65.57754169   294.15122095
 Si     1   2   3     6.118628566991   124.76712303   123.51546271
 Si     5   1   2     5.953476965941    60.08313489   144.10170391
 Si     2   1   3     6.038866490782   115.28603689   189.09655453
 Si     7   2   1     5.995975506986    60.73624488   144.92718160
 Si     3   1   2     6.109844830328   155.63823926   110.12209307
 Si     3   1   2     5.975156367362   107.82563339   163.92172740
 Si     4   3   1     6.030731746265   111.30835884   217.41936009
 Si     4   3   1     5.930974623023   170.84070875   188.57421077
 S      1   2   3     4.312334222869    51.30832526    60.82072701
 S      2   1   3     4.331065792286    51.73647079   124.93366809
 S      3   1   2     4.332106735165    52.06915493   234.63244696
 S      4   3   1     4.341769359964    52.22270170   126.48472703
 N      6   5   1     3.453343572112    30.46170783     1.06059397
 N      8   7   2     3.439355983119    29.68625370     0.50600009
 N      9   3   1     3.435249681416    29.41025734    64.00101908
 N     11   4   3     3.426928069152    30.67793743   185.01499523
 C      5   1   2     3.614592949624    88.21080587   295.40819602
 H     21   5   1     2.090090325002   111.26929845   296.14684475
 H     21   5   1     2.094213085065   108.22199826   177.84664392
 H     21   5   1     2.084699076009   113.57366026    58.04517097
 C      5   1   2     3.613905545070   106.04804688    45.59565286
 H     25   5   1     2.090625373176   111.42968867   334.22549370
 H     25   5   1     2.094107559923   110.55831311   214.04727317
 H     25   5   1     2.090668125143   111.08504673    94.22392431
 C      5   1   2     3.624017606936   136.65556771   186.76176424
 H     29   5   1     2.086567740015   114.21467559   280.99301440
 H     29   5   1     2.094970050318   107.91612838   161.50362244
 H     29   5   1     2.090515728682   111.24572370    43.73947339
 C      6   5   1     3.617302218863   100.01042742   115.01506930
 H     33   6   5     2.091476593572   110.93744908   272.73421144
 H     33   6   5     2.094822400389   109.47355878   153.63427381
 H     33   6   5     2.086265064163   112.70669561    33.63611111
 C      6   5   1     3.610301602427   141.92634784   340.43459999
 H     37   6   5     2.087945886015   112.81363804   316.39720516
 H     37   6   5     2.094836385828   108.06836873   197.58222197
 H     37   6   5     2.088275939498   112.40285691    78.77958827
 C      6   5   1     3.624133977574    89.60742929   224.21198983
 H     41   6   5     2.088016473887   113.28907732   317.35965496
 H     41   6   5     2.093710226872   108.91013387   197.76642641
 H     41   6   5     2.091807424429   111.25451452    79.26380575
 C      7   2   1     3.629933237286   144.01609363   126.41897082
 H     45   7   2     2.088356508655   112.47046846   302.40308956
 H     45   7   2     2.094803127949   107.33211207   184.76676097
 H     45   7   2     2.087606596799   113.95280475    66.13422835
 C      7   2   1     3.616378449661    99.22096797   260.43274659
 H     49   7   2     2.092307966109   110.99925104   272.25053690
 H     49   7   2     2.093496728598   109.77424217   153.08206688
 H     49   7   2     2.086046860350   112.29592802    33.00617907
 C      7   2   1     3.617391038805    89.47112347    11.63064629
 H     53   7   2     2.085709530498   113.03873767   322.20745949
 H     53   7   2     2.093388956225   109.74635452   201.85151419
 H     53   7   2     2.091692926533   110.12921663    83.38092548
 C      8   7   2     3.622830231823    94.56902317   125.30172756
 H     57   8   7     2.092524201325   110.42686509   274.64196400
 H     57   8   7     2.094352386503   109.85786782   155.84228287
 H     57   8   7     2.088754755880   113.01429337    35.44121309
 C      8   7   2     3.623055844213    96.02263386   236.53670135
 H     61   8   7     2.085644589154   113.32981465   319.03213215
 H     61   8   7     2.095029793701   109.23207496   198.93055172
 H     61   8   7     2.091912560475   110.55881149    80.47250808
 C      8   7   2     3.609605970292   141.21042477     1.50173292
 H     65   8   7     2.090261792149   112.22659140   301.91378051
 H     65   8   7     2.094812465928   108.77871268   182.98212759
 H     65   8   7     2.087441374073   112.12755104    63.84030587
 C      9   3   1     3.607712618549    84.00700411   228.62243021
 H     69   9   3     2.090425842022   111.69033668   291.07675941
 H     69   9   3     2.095376069448   108.30830433   172.41343937
 H     69   9   3     2.086306501502   113.25841527    53.10814655
 C      9   3   1     3.616825164032   113.32837571   335.60525730
 H     73   9   3     2.092128546655   110.37174297   333.24101183
 H     73   9   3     2.095188753509   110.48014049   213.98407483
 H     73   9   3     2.087997299582   112.15167236    93.49792167
 C      9   3   1     3.624591878062   129.69356989   123.98918654
 H     77   9   3     2.086581734720   113.88258056   270.94080279
 H     77   9   3     2.094856390487   108.92911088   150.82782892
 H     77   9   3     2.092852289430   110.61415480    32.59635660
 C     10   3   1     3.616184849646   105.40076465    97.06416702
 H     81  10   3     2.089368868808   111.36873196   331.59423205
 H     81  10   3     2.093869139227   109.91112427   211.86777016
 H     81  10   3     2.091803266431   111.38399918    92.21135420
 C     10   3   1     3.611721829458    85.52112255   347.66460537
 H     85  10   3     2.091153232563   110.46286322   290.80235566
 H     85  10   3     2.093292911407   108.67396245   172.98836767
 H     85  10   3     2.083573400845   113.97307773    52.83678209
 C     10   3   1     3.621784019462   139.61952875   242.19303250
 H     89  10   3     2.085751397017   114.61547646   278.19290552
 H     89  10   3     2.094558196286   107.78721882   158.70434928
 H     89  10   3     2.090241488928   111.40208454    41.38181659
 C     11   4   3     3.613161986578    80.27480664   359.28841951
 H     93  11   4     2.089962811649   111.91999923   296.02715812
 H     93  11   4     2.094168941408   108.46119133   177.55265507
 H     93  11   4     2.086333650939   113.24972821    58.46968067
 C     11   4   3     3.622148919961   119.25899136   105.00364614
 H     97  11   4     2.091234465519   110.84214589   335.87414368
 H     97  11   4     2.093880876671   110.10592648   216.57461812
 H     97  11   4     2.091069022806   112.22349418    96.67986106
 C     11   4   3     3.623197332836   126.49800160   257.58628525
 H    101  11   4     2.087487786262   113.23539110   254.72797360
 H    101  11   4     2.094240171475   108.88484650   134.99709490
 H    101  11   4     2.092341118566   110.92515613    16.66752854
 C     12   4  20     3.613943077424    95.41807082   119.57859433
 H    105  12   4     2.092281717364   111.17481062   268.70556780
 H    105  12   4     2.094236156265   110.52929372   148.62425927
 H    105  12   4     2.087858940224   111.26693007    28.72485014
 C     12   4  20     3.615116386350   144.93778942   346.26380994
 H    109  12   4     2.088761852544   111.66507900   299.87270957
 H    109  12   4     2.095099667830   108.12824634   181.69469983
 H    109  12   4     2.090000206846   113.51562998    62.49700754
 C     12   4  20     3.608187558301    88.20706977   229.54773301
 H    113  12   4     2.085749476213   112.05467666   329.47960446
 H    113  12   4     2.093936621460   110.78822173   209.53096860
 H    113  12   4     2.092260549232   110.53872783    89.56926469

---------------------
BASIS SET INFORMATION
---------------------
There are 6 groups of distinct atoms

 Group   1 Type Fe  : 17s11p7d1f contracted to 6s4p4d1f pattern {842111/6311/4111/1}
 Group   2 Type Si  : 10s7p contracted to 4s3p pattern {5311/511}
 Group   3 Type S   : 14s9p3d1f contracted to 5s5p2d1f pattern {73211/51111/21/1}
 Group   4 Type N   : 7s4p contracted to 3s2p pattern {511/31}
 Group   5 Type C   : 7s4p contracted to 3s2p pattern {511/31}
 Group   6 Type H   : 4s contracted to 2s pattern {31}

Atom   0Fe   basis set group =>   1
Atom   1Fe   basis set group =>   1
Atom   2Fe   basis set group =>   1
Atom   3Fe   basis set group =>   1
Atom   4Si   basis set group =>   2
Atom   5Si   basis set group =>   2
Atom   6Si   basis set group =>   2
Atom   7Si   basis set group =>   2
Atom   8Si   basis set group =>   2
Atom   9Si   basis set group =>   2
Atom  10Si   basis set group =>   2
Atom  11Si   basis set group =>   2
Atom  12S    basis set group =>   3
Atom  13S    basis set group =>   3
Atom  14S    basis set group =>   3
Atom  15S    basis set group =>   3
Atom  16N    basis set group =>   4
Atom  17N    basis set group =>   4
Atom  18N    basis set group =>   4
Atom  19N    basis set group =>   4
Atom  20C    basis set group =>   5
Atom  21H    basis set group =>   6
Atom  22H    basis set group =>   6
Atom  23H    basis set group =>   6
Atom  24C    basis set group =>   5
Atom  25H    basis set group =>   6
Atom  26H    basis set group =>   6
Atom  27H    basis set group =>   6
Atom  28C    basis set group =>   5
Atom  29H    basis set group =>   6
Atom  30H    basis set group =>   6
Atom  31H    basis set group =>   6
Atom  32C    basis set group =>   5
Atom  33H    basis set group =>   6
Atom  34H    basis set group =>   6
Atom  35H    basis set group =>   6
Atom  36C    basis set group =>   5
Atom  37H    basis set group =>   6
Atom  38H    basis set group =>   6
Atom  39H    basis set group =>   6
Atom  40C    basis set group =>   5
Atom  41H    basis set group =>   6
Atom  42H    basis set group =>   6
Atom  43H    basis set group =>   6
Atom  44C    basis set group =>   5
Atom  45H    basis set group =>   6
Atom  46H    basis set group =>   6
Atom  47H    basis set group =>   6
Atom  48C    basis set group =>   5
Atom  49H    basis set group =>   6
Atom  50H    basis set group =>   6
Atom  51H    basis set group =>   6
Atom  52C    basis set group =>   5
Atom  53H    basis set group =>   6
Atom  54H    basis set group =>   6
Atom  55H    basis set group =>   6
Atom  56C    basis set group =>   5
Atom  57H    basis set group =>   6
Atom  58H    basis set group =>   6
Atom  59H    basis set group =>   6
Atom  60C    basis set group =>   5
Atom  61H    basis set group =>   6
Atom  62H    basis set group =>   6
Atom  63H    basis set group =>   6
Atom  64C    basis set group =>   5
Atom  65H    basis set group =>   6
Atom  66H    basis set group =>   6
Atom  67H    basis set group =>   6
Atom  68C    basis set group =>   5
Atom  69H    basis set group =>   6
Atom  70H    basis set group =>   6
Atom  71H    basis set group =>   6
Atom  72C    basis set group =>   5
Atom  73H    basis set group =>   6
Atom  74H    basis set group =>   6
Atom  75H    basis set group =>   6
Atom  76C    basis set group =>   5
Atom  77H    basis set group =>   6
Atom  78H    basis set group =>   6
Atom  79H    basis set group =>   6
Atom  80C    basis set group =>   5
Atom  81H    basis set group =>   6
Atom  82H    basis set group =>   6
Atom  83H    basis set group =>   6
Atom  84C    basis set group =>   5
Atom  85H    basis set group =>   6
Atom  86H    basis set group =>   6
Atom  87H    basis set group =>   6
Atom  88C    basis set group =>   5
Atom  89H    basis set group =>   6
Atom  90H    basis set group =>   6
Atom  91H    basis set group =>   6
Atom  92C    basis set group =>   5
Atom  93H    basis set group =>   6
Atom  94H    basis set group =>   6
Atom  95H    basis set group =>   6
Atom  96C    basis set group =>   5
Atom  97H    basis set group =>   6
Atom  98H    basis set group =>   6
Atom  99H    basis set group =>   6
Atom 100C    basis set group =>   5
Atom 101H    basis set group =>   6
Atom 102H    basis set group =>   6
Atom 103H    basis set group =>   6
Atom 104C    basis set group =>   5
Atom 105H    basis set group =>   6
Atom 106H    basis set group =>   6
Atom 107H    basis set group =>   6
Atom 108C    basis set group =>   5
Atom 109H    basis set group =>   6
Atom 110H    basis set group =>   6
Atom 111H    basis set group =>   6
Atom 112C    basis set group =>   5
Atom 113H    basis set group =>   6
Atom 114H    basis set group =>   6
Atom 115H    basis set group =>   6

-------------------------
BASIS SET IN INPUT FORMAT
-------------------------

 # Basis set for element : H 
 NewGTO H 
 S 3 
   1      13.0107010000      0.0334854882
   2       1.9622572000      0.2347218706
   3       0.4445379600      0.8137702843
 S 1 
   1       0.1219496200      1.0000000000
  end;

 # Basis set for element : C 
 NewGTO C 
 S 5 
   1    1238.4016938000      0.0055173650
   2     186.2900499200      0.0410888285
   3      42.2511763460      0.1822538213
   4      11.6765579320      0.4682845944
   5       3.5930506482      0.4457581734
 S 1 
   1       0.4024514736      1.0000000000
 S 1 
   1       0.1309018267      1.0000000000
 P 3 
   1       9.4680970621      0.0568883320
   2       2.0103545142      0.3129405934
   3       0.5477100471      0.7606501651
 P 1 
   1       0.1526861379      1.0000000000
  end;

 # Basis set for element : N 
 NewGTO N 
 S 5 
   1    1712.8415853000     -0.0054477995
   2     257.6481267700     -0.0406271746
   3      58.4582458530     -0.1811196225
   4      16.1983679050     -0.4684397556
   5       5.0052600809     -0.4461684629
 S 1 
   1       0.5873185657      1.0000000000
 S 1 
   1       0.1876459225      1.0000000000
 P 3 
   1      13.5714702330     -0.0588481170
   2       2.9257372874     -0.3202462476
   3       0.7992775075     -0.7532822652
 P 1 
   1       0.2195434803      1.0000000000
  end;

 # Basis set for element : Si
 NewGTO Si
 S 5 
   1    6903.7118686000      0.0055844659
   2    1038.4346419000      0.0417422843
   3     235.8758148000      0.1875280237
   4      66.0693851690      0.4786785966
   5      20.2479457610      0.4292569522
 S 3 
   1      34.3534817300      0.0898348995
   2       3.6370788192     -0.5456859588
   3       1.4002048599     -0.5248108293
 S 1 
   1       0.2048441481      1.0000000000
 S 1 
   1       0.0779940955      1.0000000000
 P 5 
   1     179.8390737300      0.0101334983
   2      41.9072588460      0.0710290411
   3      12.9552943670      0.2558391422
   4       4.4383267393      0.4814980472
   5       1.5462247904      0.3852119600
 P 1 
   1       0.3560761230      1.0000000000
 P 1 
   1       0.1000851376      1.0000000000
  end;

 # Basis set for element : S 
 NewGTO S 
 S 7 
   1   60700.9281040000      0.0005238007
   2    9102.6106854000      0.0040506327
   3    2071.4166009000      0.0208270042
   4     586.0247682100      0.0814968503
   5     190.5539502100      0.2374911384
   6      67.6303842600      0.4472617151
   7      25.1273069050      0.3489191844
 S 3 
   1     112.5746301000      0.1004556987
   2      34.7955542170      0.4339117297
   3       6.5115556215     -1.2084330587
 S 2 
   1       3.2399032261      0.6749812942
   2       1.5477160881      0.3470879576
 S 1 
   1       0.4054103011      1.0000000000
 S 1 
   1       0.1455065106      1.0000000000
 P 5 
   1     564.3671602700      0.0034886923
   2     133.4262437900      0.0276851267
   3      42.4682711890      0.1265940018
   4      15.6165275800      0.3616592568
   5       6.1093988469      0.6122203444
 P 1 
   1       2.4404160198      1.0000000000
 P 1 
   1       0.8388220130      1.0000000000
 P 1 
   1       0.3128874690      1.0000000000
 P 1 
   1       0.1077010900      1.0000000000
 D 2 
   1       3.7560000000      0.1828519746
   2       0.8120000000      0.9142598730
 D 1 
   1       0.2730000000      1.0000000000
 F 1 
   1       0.5570000000      1.0000000000
  end;

 # Basis set for element : Fe
 NewGTO Fe
 S 8 
   1  300784.8463700000      0.0002410330
   2   45088.9705570000      0.0018687383
   3   10262.5163170000      0.0097155134
   4    2905.2897293000      0.0394799670
   5     946.1148713700      0.1284216284
   6     339.8783289400      0.3045786076
   7     131.9442558800      0.4346555378
   8      52.1114940770      0.2274238238
 S 4 
   1     329.4883926700     -0.0247166458
   2     101.9233273900     -0.1166959982
   3      16.2404627450      0.5522977944
   4       6.8840675801      0.5353975203
 S 2 
   1      10.4706937820     -0.3774586978
   2       1.7360039648      1.1722622910
 S 1 
   1       0.7257728898      1.0000000000
 S 1 
   1       0.1159552820      1.0000000000
 S 1 
   1       0.0419682277      1.0000000000
 P 6 
   1    1585.3959970000      0.0027395642
   2     375.3800649900      0.0221674966
   3     120.3181650100      0.1036484034
   4      44.7887490310      0.2970323067
   5      17.8292785840      0.4777337438
   6       7.2247153786      0.2787174988
 P 3 
   1      28.1432197560     -0.0202687424
   2       3.8743241412      0.3860338153
   3       1.5410752281      0.6753824729
 P 1 
   1       0.5828561525      1.0000000000
 D 4 
   1      61.9966750340      0.0194973341
   2      17.8737325520      0.1192286810
   3       6.2744782934      0.3762527479
   4       2.3552337175      0.6499784308
 D 1 
   1       0.8543223990      1.0000000000
 D 1 
   1       0.2786925441      1.0000000000
 P 1 
   1       0.1349150000      1.0000000000
 D 1 
   1       0.0910000000      1.0000000000
 F 1 
   1       1.5980000000      1.0000000000
  end;

-------------------------------
AUXILIARY BASIS SET INFORMATION
-------------------------------
There are 6 groups of distinct atoms

 Group   1 Type Fe  : 19s5p5d3f3g contracted to 8s5p5d2f3g pattern {121111111/11111/11111/21/111}
 Group   2 Type Si  : 14s5p5d2f1g contracted to 8s4p3d1f1g pattern {71111111/2111/311/2/1}
 Group   3 Type S   : 14s5p5d2f1g contracted to 8s4p3d1f1g pattern {71111111/2111/311/2/1}
 Group   4 Type N   : 12s5p4d2f1g contracted to 6s4p3d1f1g pattern {711111/2111/211/2/1}
 Group   5 Type C   : 12s5p4d2f1g contracted to 6s4p3d1f1g pattern {711111/2111/211/2/1}
 Group   6 Type H   : 5s2p1d contracted to 3s1p1d pattern {311/2/1}

Atom   0Fe   basis set group =>   1
Atom   1Fe   basis set group =>   1
Atom   2Fe   basis set group =>   1
Atom   3Fe   basis set group =>   1
Atom   4Si   basis set group =>   2
Atom   5Si   basis set group =>   2
Atom   6Si   basis set group =>   2
Atom   7Si   basis set group =>   2
Atom   8Si   basis set group =>   2
Atom   9Si   basis set group =>   2
Atom  10Si   basis set group =>   2
Atom  11Si   basis set group =>   2
Atom  12S    basis set group =>   3
Atom  13S    basis set group =>   3
Atom  14S    basis set group =>   3
Atom  15S    basis set group =>   3
Atom  16N    basis set group =>   4
Atom  17N    basis set group =>   4
Atom  18N    basis set group =>   4
Atom  19N    basis set group =>   4
Atom  20C    basis set group =>   5
Atom  21H    basis set group =>   6
Atom  22H    basis set group =>   6
Atom  23H    basis set group =>   6
Atom  24C    basis set group =>   5
Atom  25H    basis set group =>   6
Atom  26H    basis set group =>   6
Atom  27H    basis set group =>   6
Atom  28C    basis set group =>   5
Atom  29H    basis set group =>   6
Atom  30H    basis set group =>   6
Atom  31H    basis set group =>   6
Atom  32C    basis set group =>   5
Atom  33H    basis set group =>   6
Atom  34H    basis set group =>   6
Atom  35H    basis set group =>   6
Atom  36C    basis set group =>   5
Atom  37H    basis set group =>   6
Atom  38H    basis set group =>   6
Atom  39H    basis set group =>   6
Atom  40C    basis set group =>   5
Atom  41H    basis set group =>   6
Atom  42H    basis set group =>   6
Atom  43H    basis set group =>   6
Atom  44C    basis set group =>   5
Atom  45H    basis set group =>   6
Atom  46H    basis set group =>   6
Atom  47H    basis set group =>   6
Atom  48C    basis set group =>   5
Atom  49H    basis set group =>   6
Atom  50H    basis set group =>   6
Atom  51H    basis set group =>   6
Atom  52C    basis set group =>   5
Atom  53H    basis set group =>   6
Atom  54H    basis set group =>   6
Atom  55H    basis set group =>   6
Atom  56C    basis set group =>   5
Atom  57H    basis set group =>   6
Atom  58H    basis set group =>   6
Atom  59H    basis set group =>   6
Atom  60C    basis set group =>   5
Atom  61H    basis set group =>   6
Atom  62H    basis set group =>   6
Atom  63H    basis set group =>   6
Atom  64C    basis set group =>   5
Atom  65H    basis set group =>   6
Atom  66H    basis set group =>   6
Atom  67H    basis set group =>   6
Atom  68C    basis set group =>   5
Atom  69H    basis set group =>   6
Atom  70H    basis set group =>   6
Atom  71H    basis set group =>   6
Atom  72C    basis set group =>   5
Atom  73H    basis set group =>   6
Atom  74H    basis set group =>   6
Atom  75H    basis set group =>   6
Atom  76C    basis set group =>   5
Atom  77H    basis set group =>   6
Atom  78H    basis set group =>   6
Atom  79H    basis set group =>   6
Atom  80C    basis set group =>   5
Atom  81H    basis set group =>   6
Atom  82H    basis set group =>   6
Atom  83H    basis set group =>   6
Atom  84C    basis set group =>   5
Atom  85H    basis set group =>   6
Atom  86H    basis set group =>   6
Atom  87H    basis set group =>   6
Atom  88C    basis set group =>   5
Atom  89H    basis set group =>   6
Atom  90H    basis set group =>   6
Atom  91H    basis set group =>   6
Atom  92C    basis set group =>   5
Atom  93H    basis set group =>   6
Atom  94H    basis set group =>   6
Atom  95H    basis set group =>   6
Atom  96C    basis set group =>   5
Atom  97H    basis set group =>   6
Atom  98H    basis set group =>   6
Atom  99H    basis set group =>   6
Atom 100C    basis set group =>   5
Atom 101H    basis set group =>   6
Atom 102H    basis set group =>   6
Atom 103H    basis set group =>   6
Atom 104C    basis set group =>   5
Atom 105H    basis set group =>   6
Atom 106H    basis set group =>   6
Atom 107H    basis set group =>   6
Atom 108C    basis set group =>   5
Atom 109H    basis set group =>   6
Atom 110H    basis set group =>   6
Atom 111H    basis set group =>   6
Atom 112C    basis set group =>   5
Atom 113H    basis set group =>   6
Atom 114H    basis set group =>   6
Atom 115H    basis set group =>   6

-----------------------------------
AUXILIARY BASIS SET IN INPUT FORMAT
-----------------------------------

 # Auxiliary basis set for element : H 
 NewAuxGTO H 
 S 3 
   1      15.6752927000      0.1007184237
   2       3.6063578000      0.3404257499
   3       1.2080016000      0.6491996172
 S 1 
   1       0.4726794000      1.0000000000
 S 1 
   1       0.2018100000      1.0000000000
 P 2 
   1       2.0281365000      0.5596620919
   2       0.5358730000      0.5596620919
 D 1 
   1       2.2165124000      1.0000000000
  end;

 # Auxiliary basis set for element : C 
 NewAuxGTO C 
 S 7 
   1    1861.0916331000      0.0134602335
   2     642.9939764000      0.0299160374
   3     235.1105725000      0.1008649584
   4      90.7028894000      0.2370970548
   5      36.7794552000      0.3924037254
   6      15.6046273000      0.3195862154
   7       6.8907294000      0.0530104441
 S 1 
   1       3.1478850000     -1.0000000000
 S 1 
   1       1.4777287000      1.0000000000
 S 1 
   1       0.7076466000      1.0000000000
 S 1 
   1       0.3430122000      1.0000000000
 S 1 
   1       0.1669453000      1.0000000000
 P 2 
   1      13.5472892000     -0.6769313712
   2       5.4669419000     -0.3779500978
 P 1 
   1       2.1751721000      1.0000000000
 P 1 
   1       0.8582194000      1.0000000000
 P 1 
   1       0.3376720000      1.0000000000
 D 2 
   1       5.9287253000     -0.3533329857
   2       1.9809209000     -0.7456525731
 D 1 
   1       0.8055417000     -1.0000000000
 D 1 
   1       0.3531244000     -1.0000000000
 F 2 
   1       1.6755626000      0.6311076882
   2       0.5997536000      0.4968166032
 G 1 
   1       1.0024600000     -1.0000000000
  end;

 # Auxiliary basis set for element : N 
 NewAuxGTO N 
 S 7 
   1    2542.9401785000      0.0128431329
   2    1029.5472946000      0.0206655120
   3     424.9053546000      0.0652200677
   4     178.4573708000      0.1617388940
   5      76.1362742000      0.3094256941
   6      32.9338653000      0.3918849307
   7      14.4155436000      0.1822470660
 S 1 
   1       6.3718891000     -1.0000000000
 S 1 
   1       2.8381742000      1.0000000000
 S 1 
   1       1.2711793000      1.0000000000
 S 1 
   1       0.5712407000      1.0000000000
 S 1 
   1       0.2569887000      1.0000000000
 P 2 
   1      17.8975990000     -1.0974070137
   2       6.5346319000      0.1380055963
 P 1 
   1       2.3523645000      1.0000000000
 P 1 
   1       0.8397377000      1.0000000000
 P 1 
   1       0.2989335000      1.0000000000
 D 2 
   1       7.6909870000      0.1770780943
   2       2.3044972000      0.8918319220
 D 1 
   1       0.8403987000      1.0000000000
 D 1 
   1       0.3303797000      1.0000000000
 F 2 
   1       2.3331076000      0.6223178877
   2       0.8446137000      0.5036714203
 G 1 
   1       1.4037700000     -1.0000000000
  end;

 # Auxiliary basis set for element : Si
 NewAuxGTO Si
 S 7 
   1    5826.7657660000      0.0284076763
   2    2173.1214409000      0.0506219954
   3     839.4966509000      0.1641018213
   4     335.2659622000      0.3370192794
   5     138.1170978000      0.4350177009
   6      58.5516054000      0.1622592293
   7      25.4744274000     -0.0626428562
 S 1 
   1      11.3418415000      1.0000000000
 S 1 
   1       5.1513356000      1.0000000000
 S 1 
   1       2.3788654000      1.0000000000
 S 1 
   1       1.1130498000     -1.0000000000
 S 1 
   1       0.5257427000      1.0000000000
 S 1 
   1       0.2497578000      1.0000000000
 S 1 
   1       0.1188768000      1.0000000000
 P 2 
   1       8.7836931000      1.3135269516
   2       2.6158248000     -0.8310662710
 P 1 
   1       0.8266040000      1.0000000000
 P 1 
   1       0.2711487000      1.0000000000
 P 1 
   1       0.0900870000      1.0000000000
 D 3 
   1      10.8892767000      0.8997495367
   2       2.6605925000     -0.7101870629
   3       0.8067528000      0.9054152067
 D 1 
   1       0.2859848000      1.0000000000
 D 1 
   1       0.1074329000      1.0000000000
 F 2 
   1       0.8103816000      0.9065992438
   2       0.1988529000      0.2080894791
 G 1 
   1       0.4014900000     -1.0000000000
  end;

 # Auxiliary basis set for element : S 
 NewAuxGTO S 
 S 7 
   1    7399.0303145000      0.0295137551
   2    2710.1675859000      0.0559686311
   3    1034.3279062000      0.1764696370
   4     410.4645411000      0.3577969368
   5     168.9762502000      0.4299293578
   6      71.9687889000      0.1259148089
   7      31.6172683000     -0.0646025788
 S 1 
   1      14.2796836000      1.0000000000
 S 1 
   1       6.6060948000      1.0000000000
 S 1 
   1       3.1181477000      1.0000000000
 S 1 
   1       1.4954039000     -1.0000000000
 S 1 
   1       0.7254779000      1.0000000000
 S 1 
   1       0.3544216000      1.0000000000
 S 1 
   1       0.1735525000      1.0000000000
 P 2 
   1      12.6998799000      1.4059102813
   2       4.4295784000     -1.2124994202
 P 1 
   1       1.5232889000      1.0000000000
 P 1 
   1       0.5194667000     -1.0000000000
 P 1 
   1       0.1766547000     -1.0000000000
 D 3 
   1      16.8546461000      1.0295742104
   2       5.0810461000     -0.7461553923
   3       1.5102323000      0.8357028005
 D 1 
   1       0.4451331000      1.0000000000
 D 1 
   1       0.1308362000      1.0000000000
 F 2 
   1       1.0809860000      0.5572698934
   2       0.4161474000      0.5572698934
 G 1 
   1       0.6707100000     -1.0000000000
  end;

 # Auxiliary basis set for element : Fe
 NewAuxGTO Fe
 S 12 
   1   22231.1675350000      0.0250262146
   2   10088.6252560000      0.0090899755
   3    4961.4420234000      0.0781781298
   4    2333.9778892000      0.1167864369
   5    1195.0581566000      0.2227976116
   6     605.7548994000      0.2815212456
   7     312.9849847000      0.2200578063
   8     146.2270422000     -0.0017039612
   9      73.1574429000     -0.0245781626
  10      37.1905224000      0.2669577850
  11      18.7270618000      0.1823680241
  12       9.8648356000     -0.0827431303
 S 1 
   1       4.9921254000      1.0000000000
 S 1 
   1       2.5312760000      1.0000000000
 S 1 
   1       1.2321766000      1.0000000000
 S 1 
   1       0.6265715000      1.0000000000
 S 1 
   1       0.3212932000      1.0000000000
 S 1 
   1       0.1627967000      1.0000000000
 S 1 
   1       0.0808724000      1.0000000000
 P 1 
   1      19.0489263000     -1.0000000000
 P 1 
   1       5.1364325000     -1.0000000000
 P 1 
   1       1.3971534000      1.0000000000
 P 1 
   1       0.3820476000     -1.0000000000
 P 1 
   1       0.1046543000      1.0000000000
 D 1 
   1      13.4494385000     -1.0000000000
 D 1 
   1       4.6650265000     -1.0000000000
 D 1 
   1       1.5953692000     -1.0000000000
 D 1 
   1       0.5410331000     -1.0000000000
 D 1 
   1       0.1829694000      1.0000000000
 F 2 
   1       4.4300720000     -0.9315439665
   2       0.6208564000      0.5301725327
 F 1 
   1       0.0884909000     -1.0000000000
 G 1 
   1      11.9744409000     -1.0000000000
 G 1 
   1       3.6312678000     -1.0000000000
 G 1 
   1       1.0943052000     -1.0000000000
  end;



           ************************************************************
           *        Program running with 18 parallel MPI-processes    *
           *              working on a common directory               *
           ************************************************************
------------------------------------------------------------------------------
                           ORCA GTO INTEGRAL CALCULATION
                           -- RI-GTO INTEGRALS CHOSEN --
------------------------------------------------------------------------------

                         BASIS SET STATISTICS AND STARTUP INFO

Gaussian basis set:
 # of primitive gaussian shells          ...  984
 # of primitive gaussian functions       ... 1688
 # of contracted shells                  ...  452
 # of contracted basis functions         ...  828
 Highest angular momentum                ...    3
 Maximum contraction depth               ...    8
Auxiliary gaussian basis set:
 # of primitive gaussian shells          ... 1712
 # of primitive gaussian functions       ... 4464
 # of contracted shells                  ... 1076
 # of contracted aux-basis functions     ... 3132
 Highest angular momentum                ...    4
 Maximum contraction depth               ...   12
Ratio of auxiliary to basis functions    ...  3.78
Integral package used                  ... LIBINT
 One Electron integrals                  ... done
 Ordering auxiliary basis shells         ... done
 Integral threshhold             Thresh  ...  2.500e-11
 Primitive cut-off               TCut    ...  2.500e-12
 Pre-screening matrix                    ... done
 Shell pair data                         ... 
 Ordering of the shell pairs             ... done (   0.015 sec) 61295 of 102378 pairs
 Determination of significant pairs      ... done (   0.000 sec)
 Creation of shell pair data             ... done (   0.012 sec)
 Storage of shell pair data              ... done (   0.015 sec)
 Shell pair data done in (   0.042 sec)
 Computing two index integrals           ... done
 Cholesky decomposition of the V-matrix  ... done


Timings:
 Total evaluation time                   ...   3.770 sec (  0.063 min)
 One electron matrix time                ...   1.624 sec (  0.027 min) = 43.1%
 Schwartz matrix evaluation time         ...   1.166 sec (  0.019 min) = 30.9%
 Two index repulsion integral time       ...   0.379 sec (  0.006 min) = 10.0%
 Cholesky decomposition of V             ...   0.527 sec (  0.009 min) = 14.0%
 Three index repulsion integral time     ...   0.000 sec (  0.000 min) =  0.0%



           ************************************************************
           *        Program running with 18 parallel MPI-processes    *
           *              working on a common directory               *
           ************************************************************
-------------------------------------------------------------------------------
                                 ORCA SCF
-------------------------------------------------------------------------------

------------
SCF SETTINGS
------------
Hamiltonian:
 Density Functional     Method          .... DFT(GTOs)
 Exchange Functional    Exchange        .... B88
   X-Alpha parameter    XAlpha          ....  0.666667
   Becke's b parameter  XBeta           ....  0.004200
 Correlation Functional Correlation     .... LYP
 LDA part of GGA corr.  LDAOpt          .... VWN-5
 Gradients option       PostSCFGGA      .... off
 Hybrid DFT is turned on
   Fraction HF Exchange ScalHFX         ....  0.200000
   Scaling of DF-GGA-X  ScalDFX         ....  0.720000
   Scaling of DF-GGA-C  ScalDFC         ....  0.810000
   Scaling of DF-LDA-C  ScalLDAC        ....  1.000000
   Perturbative correction              ....  0.000000
   NL short-range parameter             ....  4.800000
 RI-approximation to the Coulomb term is turned on
   Number of auxiliary basis functions  .... 3132
   RIJ-COSX (HFX calculated with COS-X)).... on


General Settings:
 Integral files         IntName         .... Fe4S4
 Hartree-Fock type      HFTyp           .... UHF
 Total Charge           Charge          ....    0
 Multiplicity           Mult            ....   21
 Number of Electrons    NEL             ....  524
 Basis Dimension        Dim             ....  828
 Nuclear Repulsion      ENuc            ....  14092.1820076521 Eh

Convergence Acceleration:
 DIIS                   CNVDIIS         .... on
   Start iteration      DIISMaxIt       ....     0
   Startup error        DIISStart       ....  0.200000
   # of expansion vecs  DIISMaxEq       ....    40
   Bias factor          DIISBfac        ....   1.050
   Max. coefficient     DIISMaxC        ....  10.000
 Newton-Raphson         CNVNR           .... off
 SOSCF                  CNVSOSCF        .... off
 Level Shifting         CNVShift        .... on
   Level shift para.    LevelShift      ....    0.2500
   Turn off err/grad.   ShiftErr        ....    0.0000
 Zerner damping         CNVZerner       .... off
 Static damping         CNVDamp         .... on
   Fraction old density DampFac         ....    0.8500
   Max. Damping (<1)    DampMax         ....    0.9800
   Min. Damping (>=0)   DampMin         ....    0.0000
   Turn off err/grad.   DampErr         ....    0.0300
 Fernandez-Rico         CNVRico         .... off

SCF Procedure:
 Maximum # iterations   MaxIter         ....  1500
 SCF integral mode      SCFMode         .... Direct
   Integral package                     .... LIBINT
 Reset frequeny         DirectResetFreq ....     1
 Integral Threshold     Thresh          ....  2.500e-11 Eh
 Primitive CutOff       TCut            ....  2.500e-12 Eh

Convergence Tolerance:
 Convergence Check Mode ConvCheckMode   .... Total+1el-Energy
 Convergence forced     ConvForced      .... 0
 Energy Change          TolE            ....  1.000e-08 Eh
 1-El. energy change                    ....  1.000e-05 Eh
 DIIS Error             TolErr          ....  5.000e-07


Diagonalization of the overlap matrix:
Smallest eigenvalue                        ... 7.362e-04
Time for diagonalization                   ...    0.231 sec
Threshold for overlap eigenvalues          ... 1.000e-08
Number of eigenvalues below threshold      ... 0
Time for construction of square roots      ...    0.115 sec
Total time needed                          ...    0.348 sec

-------------------
DFT GRID GENERATION
-------------------

General Integration Accuracy     IntAcc      ...  5.010
Radial Grid Type                 RadialGrid  ... Gauss-Chebyshev
Angular Grid (max. acc.)         AngularGrid ... Lebedev-434
Angular grid pruning method      GridPruning ... 3 (G Style)
Weight generation scheme         WeightScheme... Becke
Basis function cutoff            BFCut       ...    1.0000e-11
Integration weight cutoff        WCut        ...    1.0000e-14
Grids for H and He will be reduced by one unit

# of grid points (after initial pruning)     ... 984896 (   0.0 sec)
# of grid points (after weights+screening)   ... 824636 (   3.0 sec)
nearest neighbour list constructed           ...    0.0 sec
Grid point re-assignment to atoms done       ...    0.2 sec
Grid point division into batches done        ...    6.1 sec
Reduced shell lists constructed in    7.9 sec

Total number of grid points                  ...   824636
Total number of batches                      ...    12941
Average number of points per batch           ...       63
Average number of grid points per atom       ...     7109
Average number of shells per batch           ...   213.86 (47.31%)
Average number of basis functions per batch  ...   432.86 (52.28%)
Average number of large shells per batch     ...   118.23 (55.29%)
Average number of large basis fcns per batch ...   274.09 (63.32%)
Maximum spatial batch extension              ...   3.38,  3.87,  4.40 au
Average spatial batch extension              ...   0.05,  0.05,  0.06 au

Time for grid setup =   11.109 sec

------------------------------
INITIAL GUESS: MODEL POTENTIAL
------------------------------
Loading Hartree-Fock densities                     ... done
Calculating cut-offs                               ... done
Setting up the integral package                    ... done
Initializing the effective Hamiltonian             ... done
Starting the Coulomb interaction                   ... done (   1.0 sec)
Reading the grid                                   ... done
Mapping shells                                     ... done
Starting the XC term evaluation                    ... done (   1.7 sec)
  promolecular density results
     # of electrons  =    523.965598257
     EX              =   -651.508547617
     EC              =    -19.779864980
     EX+EC           =   -671.288412597
Transforming the Hamiltonian                       ... done (   0.1 sec)
Diagonalizing the Hamiltonian                      ... done (   0.2 sec)
Back transforming the eigenvectors                 ... done (   0.0 sec)
Now organizing SCF variables                       ... done
                      ------------------
                      INITIAL GUESS DONE (  14.5 sec)
                      ------------------
--------------------
COSX GRID GENERATION
--------------------

General Integration Accuracy     IntAcc      ...  3.340
Radial Grid Type                 RadialGrid  ... Gauss-Chebyshev
Angular Grid (max. acc.)         AngularGrid ... Lebedev-50
Angular grid pruning method      GridPruning ... 3 (G Style)
Weight generation scheme         WeightScheme... Becke
Basis function cutoff            BFCut       ...    1.0000e-11
Integration weight cutoff        WCut        ...    1.0000e-14
Grids for H and He will be reduced by one unit

# of grid points (after initial pruning)     ...  52152 (   0.0 sec)
# of grid points (after weights+screening)   ...  45273 (   0.2 sec)
nearest neighbour list constructed           ...    0.0 sec
Grid point re-assignment to atoms done       ...    0.0 sec
Grid point division into batches done        ...    0.0 sec
Reduced shell lists constructed in    0.1 sec

Total number of grid points                  ...    45273
Total number of batches                      ...      752
Average number of points per batch           ...       60
Average number of grid points per atom       ...      390
Average number of shells per batch           ...   248.26 (54.92%)
Average number of basis functions per batch  ...   499.09 (60.28%)
Average number of large shells per batch     ...   138.30 (55.71%)
Average number of large basis fcns per batch ...   318.63 (63.84%)
Maximum spatial batch extension              ...   3.96,  4.36,  4.53 au
Average spatial batch extension              ...   0.13,  0.12,  0.14 au

Overlap Fitting                  UseSFitting ... on
Constructing numerical overlap ... done (      0.1 sec)
Inverting numerical overlap    ... done (      0.0 sec)
Obtaining analytic overlap     ... done (      0.0 sec)
Final contraction and storage  ... done (      0.1 sec)


General Integration Accuracy     IntAcc      ...  3.670
Radial Grid Type                 RadialGrid  ... Gauss-Chebyshev
Angular Grid (max. acc.)         AngularGrid ... Lebedev-50
Angular grid pruning method      GridPruning ... 3 (G Style)
Weight generation scheme         WeightScheme... Becke
Basis function cutoff            BFCut       ...    1.0000e-11
Integration weight cutoff        WCut        ...    1.0000e-14
Grids for H and He will be reduced by one unit

# of grid points (after initial pruning)     ...  66216 (   0.0 sec)
# of grid points (after weights+screening)   ...  57323 (   0.2 sec)
nearest neighbour list constructed           ...    0.0 sec
Grid point re-assignment to atoms done       ...    0.0 sec
Grid point division into batches done        ...    0.0 sec
Reduced shell lists constructed in    0.2 sec

Total number of grid points                  ...    57323
Total number of batches                      ...      956
Average number of points per batch           ...       59
Average number of grid points per atom       ...      494
Average number of shells per batch           ...   250.65 (55.45%)
Average number of basis functions per batch  ...   502.80 (60.72%)
Average number of large shells per batch     ...   138.36 (55.20%)
Average number of large basis fcns per batch ...   318.55 (63.35%)
Maximum spatial batch extension              ...   3.93,  4.74,  4.43 au
Average spatial batch extension              ...   0.13,  0.13,  0.13 au

Overlap Fitting                  UseSFitting ... on
Constructing numerical overlap ... done (      0.1 sec)
Inverting numerical overlap    ... done (      0.0 sec)
Obtaining analytic overlap     ... done (      0.0 sec)
Final contraction and storage  ... done (      0.1 sec)


General Integration Accuracy     IntAcc      ...  4.010
Radial Grid Type                 RadialGrid  ... Gauss-Chebyshev
Angular Grid (max. acc.)         AngularGrid ... Lebedev-110
Angular grid pruning method      GridPruning ... 3 (G Style)
Weight generation scheme         WeightScheme... Becke
Basis function cutoff            BFCut       ...    1.0000e-11
Integration weight cutoff        WCut        ...    1.0000e-14
Grids for H and He will be reduced by one unit

# of grid points (after initial pruning)     ... 119256 (   0.0 sec)
# of grid points (after weights+screening)   ... 103010 (   0.4 sec)
nearest neighbour list constructed           ...    0.0 sec
Grid point re-assignment to atoms done       ...    0.0 sec
Grid point division into batches done        ...    0.1 sec
Reduced shell lists constructed in    0.4 sec

Total number of grid points                  ...   103010
Total number of batches                      ...     1678
Average number of points per batch           ...       61
Average number of grid points per atom       ...      888
Average number of shells per batch           ...   238.81 (52.83%)
Average number of basis functions per batch  ...   482.87 (58.32%)
Average number of large shells per batch     ...   133.36 (55.84%)
Average number of large basis fcns per batch ...   308.37 (63.86%)
Maximum spatial batch extension              ...   4.22,  3.94,  5.82 au
Average spatial batch extension              ...   0.10,  0.11,  0.11 au

Overlap Fitting                  UseSFitting ... on
Constructing numerical overlap ... done (      0.2 sec)
Inverting numerical overlap    ... done (      0.0 sec)
Obtaining analytic overlap     ... done (      0.0 sec)
Final contraction and storage  ... done (      0.1 sec)

Time for X-Grid setup             =    2.384 sec
--------------
SCF ITERATIONS
--------------
ITER       Energy         Delta-E        Max-DP      RMS-DP      [F,P]     Damp
  0 -10134.7507613002   0.000000000000 0.03990219  0.00046973  0.3470960 0.8500
  1 -10135.6099587536  -0.859197453414 0.03346086  0.00041688  0.2188418 0.8500
                               ***Turning on DIIS***
  2 -10135.9943275770  -0.384368823366 0.02031506  0.00030765  0.1195613 0.8500
  3 -10136.2599764711  -0.265648894167 0.01286636  0.00018758  0.0688469 0.8500
  4 -10136.4863396937  -0.226363222604 0.00659443  0.00011495  0.0523989 0.8500
  5 -10136.6585564994  -0.172216805689 0.00524380  0.00008453  0.0468332 0.8500
  6 -10136.7974046496  -0.138848150151 0.00467064  0.00006854  0.0415338 0.8500
  7 -10136.9124948082  -0.115090158599 0.00417831  0.00005786  0.0353415 0.8500
  8 -10137.0089176489  -0.096422840688 0.02394391  0.00033164  0.0291063 0.0000
  9 -10137.5475106844  -0.538593035515 0.00366393  0.00004092  0.0055433 0.0000
 10 -10137.5490904359  -0.001579751572 0.00307939  0.00002623  0.0041805 0.0000
 11 -10137.5499966306  -0.000906194609 0.00258087  0.00001986  0.0012371 0.0000
 12 -10137.5504083109  -0.000411680334 0.00101708  0.00001247  0.0013220 0.0000
 13 -10137.5506702352  -0.000261924279 0.00096040  0.00001080  0.0008502 0.0000
 14 -10137.5767272145  -0.026056979328 0.00086231  0.00001173  0.0010990 0.0000
 15 -10137.5768617992  -0.000134584701 0.00087266  0.00001233  0.0007254 0.0000
 16 -10137.5769628656  -0.000101066438 0.00079213  0.00000844  0.0006133 0.0000
 17 -10137.5770330628  -0.000070197126 0.00062334  0.00000621  0.0004431 0.0000
 18 -10137.5770782239  -0.000045161118 0.00057088  0.00000584  0.0003125 0.0000
 19 -10137.5771096103  -0.000031386431 0.00041967  0.00000408  0.0004737 0.0000
 20 -10137.5771289695  -0.000019359148 0.00040848  0.00000446  0.0002226 0.0000
 21 -10137.5771432723  -0.000014302803 0.00030564  0.00000278  0.0001493 0.0000
 22 -10137.5771516737  -0.000008401488 0.00025571  0.00000236  0.0001121 0.0000
 23 -10137.5771572530  -0.000005579295 0.00018729  0.00000175  0.0001502 0.0000
 24 -10137.5771607726  -0.000003519594 0.00016406  0.00000159  0.0001320 0.0000
 25 -10137.5771632340  -0.000002461382 0.00012682  0.00000128  0.0000786 0.0000
 26 -10137.5771647700  -0.000001535982 0.00010138  0.00000103  0.0000573 0.0000
 27 -10137.5771657115  -0.000000941496 0.00007603  0.00000078  0.0000334 0.0000
 28 -10137.5771662748  -0.000000563297 0.00005752  0.00000060  0.0000277 0.0000
 29 -10137.5771665926  -0.000000317823 0.00004238  0.00000045  0.0000273 0.0000
 30 -10137.5771667923  -0.000000199649 0.00003059  0.00000034  0.0000225 0.0000
 31 -10137.5771669055  -0.000000113201 0.00002221  0.00000025  0.0000211 0.0000
 32 -10137.5771669737  -0.000000068278 0.00001581  0.00000019  0.0000192 0.0000
 33 -10137.5771670145  -0.000000040800 0.00001109  0.00000014  0.0000127 0.0000
 34 -10137.5771670415  -0.000000026930 0.00000831  0.00000011  0.0000094 0.0000
 35 -10137.5771670543  -0.000000012837 0.00000625  0.00000008  0.0000075 0.0000
 36 -10137.5771670648  -0.000000010505 0.00000466  0.00000006  0.0000053 0.0000
 37 -10137.5771670698  -0.000000005030 0.00000347  0.00000005  0.0000037 0.0000
 38 -10137.5771670714  -0.000000001586 0.00000267  0.00000004  0.0000029 0.0000
 39 -10137.5771670746  -0.000000003167 0.00000206  0.00000003  0.0000020 0.0000
 40 -10137.5771670776  -0.000000003047 0.00000159  0.00000002  0.0000015 0.0000
 41 -10137.5771670779  -0.000000000271 0.00000125  0.00000002  0.0000012 0.0000
                 **** Energy Check signals convergence ****

               *****************************************************
               *                     SUCCESS                       *
               *           SCF CONVERGED AFTER  42 CYCLES          *
               *****************************************************

Old exchange energy                            =   -131.223892104 Eh
New exchange energy                            =   -131.222189642 Eh
Exchange energy change after final integration =      0.001702461 Eh
Total energy after final integration           = -10137.575464618 Eh
Final COS-X integration done in                =    42.615 sec

----------------
TOTAL SCF ENERGY
----------------

Total Energy       :       -10137.57546462 Eh         -275857.45271 eV

Components:
Nuclear Repulsion  :        14092.18200765 Eh          383467.76755 eV
Electronic Energy  :       -24229.75747227 Eh         -659325.22027 eV
One Electron Energy:       -42119.88420644 Eh        -1146140.31790 eV
Two Electron Energy:        17890.12673417 Eh          486815.09764 eV

Virial components:
Potential Energy   :       -20246.17355827 Eh         -550926.39108 eV
Kinetic Energy     :        10108.59809365 Eh          275068.93836 eV
Virial Ratio       :            2.00286661


DFT components:
N(Alpha)           :      272.000165715549 electrons
N(Beta)            :      252.000171662611 electrons
N(Total)           :      524.000337378160 electrons
E(X)               :     -521.580225921187 Eh       
E(C)               :      -23.109008465786 Eh       
E(XC)              :     -544.689234386974 Eh       

---------------
SCF CONVERGENCE
---------------

  Last Energy change         ...   -1.6407e-09  Tolerance :   1.0000e-08
  Last MAX-Density change    ...    0.0000e+00  Tolerance :   1.0000e-07
  Last RMS-Density change    ...    0.0000e+00  Tolerance :   5.0000e-09
  Last DIIS Error            ...    8.0783e-07  Tolerance :   5.0000e-07

             **** THE GBW FILE WAS UPDATED (Fe4S4.gbw) ****
             **** DENSITY FILE WAS UPDATED (Fe4S4.scfp.tmp) ****
             **** ENERGY FILE WAS UPDATED (Fe4S4.en.tmp) ****
----------------------
UHF SPIN CONTAMINATION
----------------------

Warning: in a DFT calculation there is little theoretical justification to 
         calculate <S**2> as in Hartree-Fock theory. We will do it anyways
         but you should keep in mind that the values have only limited relevance

Expectation value of <S**2>     :   110.059602
Ideal value S*(S+1) for S=10.0   :   110.000000
Deviation                       :     0.059602

----------------
ORBITAL ENERGIES
----------------
                 SPIN UP ORBITALS
  NO   OCC          E(Eh)            E(eV) 
   0   1.0000    -256.151706     -6970.2423 
   1   1.0000    -256.151435     -6970.2349 
   2   1.0000    -256.149911     -6970.1934 
   3   1.0000    -256.148626     -6970.1585 
   4   1.0000     -88.823591     -2417.0128 
   5   1.0000     -88.822371     -2416.9796 
   6   1.0000     -88.821364     -2416.9522 
   7   1.0000     -88.820809     -2416.9371 
   8   1.0000     -66.131956     -1799.5420 
   9   1.0000     -66.131708     -1799.5353 
  10   1.0000     -66.131614     -1799.5327 
  11   1.0000     -66.131467     -1799.5287 
  12   1.0000     -66.131351     -1799.5255 
  13   1.0000     -66.130847     -1799.5118 
  14   1.0000     -66.130282     -1799.4965 
  15   1.0000     -66.129601     -1799.4779 
  16   1.0000     -30.140394      -820.1618 
  17   1.0000     -30.140139      -820.1549 
  18   1.0000     -30.138789      -820.1181 
  19   1.0000     -30.137790      -820.0910 
  20   1.0000     -25.997693      -707.4332 
  21   1.0000     -25.997650      -707.4320 
  22   1.0000     -25.996509      -707.4010 
  23   1.0000     -25.996109      -707.3901 
  24   1.0000     -25.993991      -707.3325 
  25   1.0000     -25.993244      -707.3121 
  26   1.0000     -25.991879      -707.2750 
  27   1.0000     -25.990001      -707.2239 
  28   1.0000     -25.989111      -707.1997 
  29   1.0000     -25.989100      -707.1994 
  30   1.0000     -25.987583      -707.1581 
  31   1.0000     -25.986805      -707.1369 
  32   1.0000     -14.303017      -389.2049 
  33   1.0000     -14.300954      -389.1487 
  34   1.0000     -14.300025      -389.1235 
  35   1.0000     -14.297561      -389.0564 
  36   1.0000     -10.160386      -276.4781 
  37   1.0000     -10.159904      -276.4650 
  38   1.0000     -10.159890      -276.4647 
  39   1.0000     -10.159528      -276.4548 
  40   1.0000     -10.159306      -276.4488 
  41   1.0000     -10.159067      -276.4423 
  42   1.0000     -10.159042      -276.4416 
  43   1.0000     -10.158101      -276.4160 
  44   1.0000     -10.157542      -276.4008 
  45   1.0000     -10.156844      -276.3818 
  46   1.0000     -10.156620      -276.3757 
  47   1.0000     -10.156511      -276.3727 
  48   1.0000     -10.156479      -276.3718 
  49   1.0000     -10.156438      -276.3707 
  50   1.0000     -10.156217      -276.3647 
  51   1.0000     -10.156085      -276.3611 
  52   1.0000     -10.155536      -276.3462 
  53   1.0000     -10.155502      -276.3453 
  54   1.0000     -10.155467      -276.3443 
  55   1.0000     -10.155323      -276.3404 
  56   1.0000     -10.155004      -276.3317 
[...]
 52 C      6.6930     6.0000    -0.6930     3.6579     3.6578     0.0001
 53 H      0.8262     1.0000     0.1738     0.9510     0.9510     0.0000
 54 H      0.8821     1.0000     0.1179     0.9492     0.9492     0.0000
 55 H      0.8590     1.0000     0.1410     0.9447     0.9447     0.0000
 56 C      6.6492     6.0000    -0.6492     3.6562     3.6561     0.0002
 57 H      0.8756     1.0000     0.1244     0.9519     0.9519     0.0000
 58 H      0.8804     1.0000     0.1196     0.9492     0.9492     0.0000
 59 H      0.8768     1.0000     0.1232     0.9634     0.9634     0.0000
 60 C      6.6447     6.0000    -0.6447     3.6543     3.6542     0.0002
 61 H      0.8809     1.0000     0.1191     0.9696     0.9696     0.0000
 62 H      0.8824     1.0000     0.1176     0.9500     0.9500     0.0000
 63 H      0.8760     1.0000     0.1240     0.9521     0.9521     0.0000
 64 C      6.7049     6.0000    -0.7049     3.6453     3.6453     0.0000
 65 H      0.8442     1.0000     0.1558     0.9470     0.9470     0.0000
 66 H      0.8799     1.0000     0.1201     0.9498     0.9498     0.0000
 67 H      0.8345     1.0000     0.1655     0.9416     0.9416     0.0000
 68 C      6.6870     6.0000    -0.6870     3.6625     3.6625     0.0000
 69 H      0.8585     1.0000     0.1415     0.9496     0.9496     0.0000
 70 H      0.8817     1.0000     0.1183     0.9490     0.9490     0.0000
 71 H      0.8431     1.0000     0.1569     0.9675     0.9675     0.0000
 72 C      6.6407     6.0000    -0.6407     3.6619     3.6617     0.0002
 73 H      0.8762     1.0000     0.1238     0.9523     0.9523     0.0000
 74 H      0.8841     1.0000     0.1159     0.9494     0.9494     0.0000
 75 H      0.8810     1.0000     0.1190     0.9675     0.9675     0.0000
 76 C      6.6579     6.0000    -0.6579     3.6469     3.6467     0.0002
 77 H      0.8770     1.0000     0.1230     0.9663     0.9663     0.0000
 78 H      0.8791     1.0000     0.1209     0.9492     0.9492     0.0000
 79 H      0.8754     1.0000     0.1246     0.9529     0.9529     0.0000
 80 C      6.6475     6.0000    -0.6475     3.6784     3.6783     0.0001
 81 H      0.8561     1.0000     0.1439     0.9573     0.9573     0.0000
 82 H      0.8845     1.0000     0.1155     0.9492     0.9492     0.0000
 83 H      0.8795     1.0000     0.1205     0.9541     0.9541     0.0000
 84 C      6.7307     6.0000    -0.7307     3.6410     3.6410     0.0001
 85 H      0.8282     1.0000     0.1718     0.9532     0.9532     0.0000
 86 H      0.8830     1.0000     0.1170     0.9485     0.9485     0.0000
 87 H      0.8158     1.0000     0.1842     0.9566     0.9566     0.0000
 88 C      6.6697     6.0000    -0.6697     3.6432     3.6431     0.0001
 89 H      0.8740     1.0000     0.1260     0.9660     0.9660     0.0000
 90 H      0.8797     1.0000     0.1203     0.9495     0.9495     0.0000
 91 H      0.8690     1.0000     0.1310     0.9554     0.9554     0.0000
 92 C      6.7177     6.0000    -0.7177     3.6476     3.6475     0.0000
 93 H      0.8390     1.0000     0.1610     0.9472     0.9472     0.0000
 94 H      0.8814     1.0000     0.1186     0.9490     0.9490     0.0000
 95 H      0.8233     1.0000     0.1767     0.9555     0.9555     0.0000
 96 C      6.6467     6.0000    -0.6467     3.6616     3.6614     0.0002
 97 H      0.8749     1.0000     0.1251     0.9526     0.9526     0.0000
 98 H      0.8815     1.0000     0.1185     0.9488     0.9488     0.0000
 99 H      0.8784     1.0000     0.1216     0.9596     0.9596     0.0000
100 C      6.6492     6.0000    -0.6492     3.6508     3.6506     0.0001
101 H      0.8807     1.0000     0.1193     0.9656     0.9656     0.0000
102 H      0.8820     1.0000     0.1180     0.9499     0.9499     0.0000
103 H      0.8754     1.0000     0.1246     0.9514     0.9514     0.0000
104 C      6.6587     6.0000    -0.6587     3.6751     3.6750     0.0001
105 H      0.8764     1.0000     0.1236     0.9509     0.9509     0.0000
106 H      0.8847     1.0000     0.1153     0.9495     0.9495     0.0000
107 H      0.8415     1.0000     0.1585     0.9616     0.9616     0.0000
108 C      6.6798     6.0000    -0.6798     3.6452     3.6451     0.0001
109 H      0.8684     1.0000     0.1316     0.9577     0.9577     0.0000
110 H      0.8772     1.0000     0.1228     0.9489     0.9489     0.0000
111 H      0.8690     1.0000     0.1310     0.9588     0.9588     0.0000
112 C      6.6912     6.0000    -0.6912     3.6584     3.6583     0.0001
113 H      0.8115     1.0000     0.1885     0.9632     0.9632     0.0000
114 H      0.8811     1.0000     0.1189     0.9486     0.9486     0.0000
115 H      0.8747     1.0000     0.1253     0.9515     0.9515     0.0000

  Mayer bond orders larger than 0.1
B(  0-Fe, 12-S ) :   0.7762 B(  0-Fe, 13-S ) :   0.5735 B(  0-Fe, 14-S ) :   0.6085 
B(  0-Fe, 16-N ) :   1.0017 B(  1-Fe, 12-S ) :   0.6274 B(  1-Fe, 13-S ) :   0.7510 
B(  1-Fe, 15-S ) :   0.6580 B(  1-Fe, 17-N ) :   1.0093 B(  2-Fe, 12-S ) :   0.5997 
B(  2-Fe, 14-S ) :   0.7322 B(  2-Fe, 15-S ) :   0.6515 B(  2-Fe, 18-N ) :   0.9997 
B(  3-Fe, 13-S ) :   0.6483 B(  3-Fe, 14-S ) :   0.6213 B(  3-Fe, 15-S ) :   0.7040 
B(  3-Fe, 19-N ) :   0.9907 B(  4-Si, 16-N ) :   0.6897 B(  4-Si, 20-C ) :   0.8715 
B(  4-Si, 24-C ) :   0.8959 B(  4-Si, 28-C ) :   0.8362 B(  5-Si, 16-N ) :   0.6976 
B(  5-Si, 32-C ) :   0.8876 B(  5-Si, 36-C ) :   0.8556 B(  5-Si, 40-C ) :   0.8509 
B(  6-Si, 17-N ) :   0.6794 B(  6-Si, 44-C ) :   0.8228 B(  6-Si, 48-C ) :   0.8958 
B(  6-Si, 52-C ) :   0.8748 B(  7-Si, 17-N ) :   0.6974 B(  7-Si, 56-C ) :   0.8621 
B(  7-Si, 60-C ) :   0.8686 B(  7-Si, 64-C ) :   0.8500 B(  8-Si, 18-N ) :   0.6992 
B(  8-Si, 68-C ) :   0.8726 B(  8-Si, 72-C ) :   0.8814 B(  8-Si, 76-C ) :   0.8465 
B(  9-Si, 18-N ) :   0.6797 B(  9-Si, 80-C ) :   0.9030 B(  9-Si, 84-C ) :   0.8696 
B(  9-Si, 88-C ) :   0.8307 B( 10-Si, 19-N ) :   0.6947 B( 10-Si, 92-C ) :   0.8589 
B( 10-Si, 96-C ) :   0.8706 B( 10-Si,100-C ) :   0.8593 B( 11-Si, 19-N ) :   0.6699 
B( 11-Si,104-C ) :   0.9005 B( 11-Si,108-C ) :   0.8287 B( 11-Si,112-C ) :   0.8827 
B( 20-C , 21-H ) :   0.9241 B( 20-C , 22-H ) :   0.9213 B( 20-C , 23-H ) :   0.9230 
B( 24-C , 25-H ) :   0.9208 B( 24-C , 26-H ) :   0.9259 B( 24-C , 27-H ) :   0.9288 
B( 28-C , 29-H ) :   0.9281 B( 28-C , 30-H ) :   0.9220 B( 28-C , 31-H ) :   0.9335 
B( 32-C , 33-H ) :   0.9310 B( 32-C , 34-H ) :   0.9264 B( 32-C , 35-H ) :   0.9291 
B( 36-C , 37-H ) :   0.9118 B( 36-C , 38-H ) :   0.9177 B( 36-C , 39-H ) :   0.9198 
B( 40-C , 41-H ) :   0.9289 B( 40-C , 42-H ) :   0.9248 B( 40-C , 43-H ) :   0.9324 
B( 44-C , 45-H ) :   0.9336 B( 44-C , 46-H ) :   0.9217 B( 44-C , 47-H ) :   0.9336 
B( 48-C , 49-H ) :   0.9352 B( 48-C , 50-H ) :   0.9229 B( 48-C , 51-H ) :   0.9147 
B( 52-C , 53-H ) :   0.9067 B( 52-C , 54-H ) :   0.9213 B( 52-C , 55-H ) :   0.9200 
B( 56-C , 57-H ) :   0.9332 B( 56-C , 58-H ) :   0.9277 B( 56-C , 59-H ) :   0.9307 
B( 60-C , 61-H ) :   0.9316 B( 60-C , 62-H ) :   0.9274 B( 60-C , 63-H ) :   0.9345 
B( 64-C , 65-H ) :   0.9140 B( 64-C , 66-H ) :   0.9208 B( 64-C , 67-H ) :   0.9146 
B( 68-C , 69-H ) :   0.9313 B( 68-C , 70-H ) :   0.9203 B( 68-C , 71-H ) :   0.9147 
B( 72-C , 73-H ) :   0.9318 B( 72-C , 74-H ) :   0.9273 B( 72-C , 75-H ) :   0.9306 
B( 76-C , 77-H ) :   0.9306 B( 76-C , 78-H ) :   0.9269 B( 76-C , 79-H ) :   0.9348 
B( 80-C , 81-H ) :   0.9230 B( 80-C , 82-H ) :   0.9240 B( 80-C , 83-H ) :   0.9331 
B( 84-C , 85-H ) :   0.8997 B( 84-C , 86-H ) :   0.9189 B( 84-C , 87-H ) :   0.9000 
B( 88-C , 89-H ) :   0.9335 B( 88-C , 90-H ) :   0.9210 B( 88-C , 91-H ) :   0.9315 
B( 92-C , 93-H ) :   0.9141 B( 92-C , 94-H ) :   0.9171 B( 92-C , 95-H ) :   0.9021 
B( 96-C , 97-H ) :   0.9333 B( 96-C , 98-H ) :   0.9272 B( 96-C , 99-H ) :   0.9319 
B(100-C ,101-H ) :   0.9335 B(100-C ,102-H ) :   0.9287 B(100-C ,103-H ) :   0.9354 
B(104-C ,105-H ) :   0.9351 B(104-C ,106-H ) :   0.9238 B(104-C ,107-H ) :   0.9109 
B(108-C ,109-H ) :   0.9338 B(108-C ,110-H ) :   0.9236 B(108-C ,111-H ) :   0.9330 
B(112-C ,113-H ) :   0.8849 B(112-C ,114-H ) :   0.9213 B(112-C ,115-H ) :   0.9338 


-------
TIMINGS
-------

Total SCF time: 0 days 0 hours 25 min 57 sec 

Total time                  ....    1557.300 sec
Sum of individual times     ....    1539.772 sec  ( 98.9%)

Fock matrix formation       ....    1311.721 sec  ( 84.2%)
  Split-RI-J                ....     116.057 sec  (  8.8% of F)
  Chain of spheres X        ....    1019.014 sec  ( 77.7% of F)
  COS-X 1 center corr.      ....       0.000 sec  (  0.0% of F)
  XC integration            ....     154.558 sec  ( 11.8% of F)
    Basis function eval.    ....      22.674 sec  ( 14.7% of XC)
    Density eval.           ....      42.246 sec  ( 27.3% of XC)
    XC-Functional eval.     ....       2.582 sec  (  1.7% of XC)
    XC-Potential eval.      ....      73.059 sec  ( 47.3% of XC)
Diagonalization             ....      34.620 sec  (  2.2%)
Density matrix formation    ....       0.968 sec  (  0.1%)
Population analysis         ....       2.364 sec  (  0.2%)
Initial guess               ....       3.363 sec  (  0.2%)
Orbital Transformation      ....       0.000 sec  (  0.0%)
Orbital Orthonormalization  ....       0.000 sec  (  0.0%)
DIIS solution               ....     173.242 sec  ( 11.1%)
Grid generation             ....      13.494 sec  (  0.9%)

-------------------------   --------------------
FINAL SINGLE POINT ENERGY    -10137.575464618325
-------------------------   --------------------



           ************************************************************
           *        Program running with 18 parallel MPI-processes    *
           *              working on a common directory               *
           ************************************************************
------------------------------------------------------------------------------
                         ORCA SCF GRADIENT CALCULATION
------------------------------------------------------------------------------

Gradient of the Kohn-Sham DFT energy:
Kohn-Sham wavefunction type      ... UKS
Hartree-Fock exchange scaling    ...    0.200
Number of operators              ...    2
Number of atoms                  ...  116
Basis set dimensions             ...  828
Integral neglect threshold       ... 2.5e-11
Integral primitive cutoff        ... 2.5e-12

Nuclear repulsion gradient       ... done
One Electron Gradient            ... done
Pre-screening matrix             ... done
RI-J gradient                    ... done
COSX-gradient                    ... done
Exchange-correlation gradient    ... done

------------------
CARTESIAN GRADIENT
------------------

   1   Fe  :   -0.006508358    0.010419394    0.014329658
   2   Fe  :    0.005735933   -0.018844147   -0.004160737
   3   Fe  :    0.016780517   -0.006960533   -0.010356805
   4   Fe  :   -0.015719141    0.013569485   -0.001391786
   5   Si  :    0.000505304   -0.000116694    0.001038813
   6   Si  :   -0.000203388    0.000900008    0.000647382
   7   Si  :   -0.000661458   -0.000860595    0.000573819
   8   Si  :   -0.000061922   -0.000965792   -0.000164094
   9   Si  :    0.000680644    0.000105385   -0.001101939
  10   Si  :    0.000939877    0.000896947    0.000412476
  11   Si  :    0.000078513    0.001009247   -0.000765707
  12   Si  :   -0.001549355   -0.000456936   -0.000312670
  13   S   :    0.009532954   -0.008933621    0.002478990
  14   S   :   -0.010451799    0.002517409    0.007163658
  15   S   :   -0.001538875    0.014224489    0.002590708
  16   S   :    0.002469097   -0.006600563   -0.010133428
  17   N   :    0.000019433    0.000747125    0.001619707
  18   N   :   -0.000892075   -0.001863368    0.000139836
  19   N   :    0.001783215    0.000934340   -0.000893759
  20   N   :   -0.001665581    0.000690053   -0.001619621
  21   C   :    0.000149438    0.000026743   -0.000091151
  22   H   :    0.000074704   -0.000210263    0.000013452
  23   H   :   -0.000077511    0.000204747    0.000130898
  24   H   :   -0.000107274    0.000218442   -0.000255164
  25   C   :   -0.000287460   -0.000061930    0.000024538
  26   H   :   -0.000019908    0.000016893   -0.000021970
  27   H   :    0.000053073    0.000056541   -0.000073102
  28   H   :    0.000041088    0.000028835   -0.000034863
  29   C   :   -0.000093081    0.000016302    0.000024454
  30   H   :   -0.000053286   -0.000053279    0.000103456
  31   H   :    0.000007744    0.000000405    0.000002849
  32   H   :    0.000081614    0.000016960    0.000043272
  33   C   :    0.000198311    0.000005287   -0.000077964
  34   H   :   -0.000071852    0.000023517   -0.000052230
  35   H   :   -0.000055275   -0.000026503    0.000022283
  36   H   :   -0.000143812   -0.000096343    0.000010596
  37   C   :    0.000079581   -0.000380030   -0.000324100
  38   H   :   -0.000064962   -0.000085638    0.000113476
  39   H   :    0.000007128   -0.000063041    0.000095614
  40   H   :    0.000049161    0.000007251   -0.000026263
  41   C   :   -0.000129012   -0.000102620    0.000087162
  42   H   :    0.000089380    0.000020999    0.000000200
  43   H   :   -0.000065980    0.000006137   -0.000007965
  44   H   :   -0.000039642    0.000005298    0.000006520
  45   C   :   -0.000025339    0.000017007    0.000076182
  46   H   :    0.000029388    0.000044187    0.000013177
  47   H   :    0.000006988   -0.000050485    0.000046228
  48   H   :    0.000004017    0.000029029    0.000032332
  49   C   :   -0.000060335   -0.000064040   -0.000217359
  50   H   :   -0.000031326   -0.000038158    0.000037843
  51   H   :    0.000064948   -0.000069760    0.000016830
  52   H   :    0.000120385    0.000089103    0.000041390
  53   C   :    0.000392352    0.000070960   -0.000092471
  54   H   :   -0.000120427    0.000168846    0.000029864
  55   H   :   -0.000052543   -0.000082929   -0.000065655
  56   H   :    0.000020871   -0.000035741    0.000124500
  57   C   :    0.000002131    0.000084861   -0.000049835
  58   H   :   -0.000019950   -0.000018841    0.000007796
  59   H   :   -0.000002367    0.000016438    0.000048150
  60   H   :    0.000019738   -0.000061739    0.000015962
  61   C   :    0.000098345   -0.000005169    0.000115297
  62   H   :   -0.000005761   -0.000103013    0.000049263
  63   H   :   -0.000039894    0.000043301   -0.000046472
  64   H   :   -0.000027059    0.000060226   -0.000043088
  65   C   :   -0.000305159    0.000574469    0.000056032
  66   H   :    0.000272055    0.000062433    0.000084181
  67   H   :   -0.000008664   -0.000026806    0.000141872
  68   H   :    0.000026399    0.000118546   -0.000081344
  69   C   :   -0.000134590    0.000143463    0.000190192
  70   H   :   -0.000041753   -0.000190948    0.000176250
  71   H   :    0.000153723    0.000060015    0.000058474
  72   H   :   -0.000208495   -0.000020560   -0.000244525
  73   C   :   -0.000022250    0.000068189    0.000284282
  74   H   :   -0.000000941    0.000040384    0.000000887
  75   H   :   -0.000112385    0.000079651   -0.000040254
  76   H   :    0.000090850    0.000012178    0.000016691
  77   C   :   -0.000059363    0.000126150   -0.000005591
  78   H   :   -0.000025440   -0.000018440    0.000082237
  79   H   :   -0.000017199    0.000003633   -0.000009173
  80   H   :    0.000042406   -0.000008202   -0.000081559
  81   C   :   -0.000170987   -0.000004618   -0.000174087
  82   H   :   -0.000090044   -0.000299648    0.000149174
  83   H   :    0.000078152   -0.000033051   -0.000001106
  84   H   :   -0.000008085    0.000078853   -0.000043069
  85   C   :   -0.000119801   -0.000493133    0.000145183
  86   H   :   -0.000019339    0.000052960    0.000004358
  87   H   :   -0.000032050    0.000051125   -0.000080295
  88   H   :   -0.000299244    0.000063740    0.000045808
  89   C   :   -0.000076260   -0.000031387    0.000103079
  90   H   :   -0.000022037    0.000017678   -0.000022930
  91   H   :   -0.000017262    0.000061745   -0.000017069
  92   H   :   -0.000071615    0.000050703    0.000024845
  93   C   :   -0.000025290   -0.000247034    0.000244631
  94   H   :   -0.000020733   -0.000094666   -0.000099416
  95   H   :   -0.000059583   -0.000014591   -0.000041284
  96   H   :   -0.000012299    0.000111993    0.000208262
  97   C   :   -0.000131065    0.000020226    0.000035859
  98   H   :   -0.000034253    0.000013152   -0.000008985
  99   H   :   -0.000035111   -0.000053871    0.000025807
 100   H   :    0.000025924    0.000075546   -0.000032677
 101   C   :   -0.000139790   -0.000196915    0.000083042
 102   H   :    0.000019610    0.000020002    0.000033120
 103   H   :   -0.000055642    0.000003362    0.000061278
 104   H   :   -0.000003734    0.000004842   -0.000024017
 105   C   :    0.000454568    0.000344150    0.000186127
 106   H   :   -0.000096544    0.000016058    0.000065171
 107   H   :    0.000002875   -0.000074932   -0.000181206
 108   H   :   -0.000058920   -0.000188831   -0.000071071
 109   C   :   -0.000158298   -0.000090471    0.000055958
 110   H   :    0.000006304    0.000032591   -0.000027313
 111   H   :   -0.000090936   -0.000030834   -0.000015922
 112   H   :   -0.000103278   -0.000073912    0.000058992
 113   C   :    0.000189670   -0.000055921   -0.000198821
 114   H   :   -0.000016846    0.000113293    0.000100153
 115   H   :   -0.000026268    0.000050794    0.000002221
 116   H   :   -0.000099584   -0.000058823   -0.000018366

Difference to translation invariance:
           :   -0.0023987359    0.0002447495    0.0011525186

Norm of the cartesian gradient     ...    0.0487287093
RMS gradient                       ...    0.0026121330
MAX gradient                       ...    0.0188441470

-------
TIMINGS
-------

Total SCF gradient time            ...       83.329 sec

One electron gradient       ....       2.673 sec  (  3.2%)
Prescreening matrices       ....       0.486 sec  (  0.6%)
RI-J Coulomb gradient       ....       8.619 sec  ( 10.3%)
COSX gradient               ....      42.375 sec  ( 50.9%)
XC gradient                 ....      26.444 sec  ( 31.7%)

                            ***************************************
                            *     ORCA property calculations      *
                            ***************************************

                                    ---------------------
                                    Active property flags
                                    ---------------------
   (+) Dipole Moment


------------------------------------------------------------------------------
                       ORCA ELECTRIC PROPERTIES CALCULATION
------------------------------------------------------------------------------

Dipole Moment Calculation                       ... on
Quadrupole Moment Calculation                   ... off
Polarizability Calculation                      ... off
GBWName                                         ... Fe4S4.gbw
Electron density file                           ... Fe4S4.scfp.tmp
The origin for moment calculation is the CENTER OF MASS  = ( 6.850148, 19.902467  4.999331)

-------------
DIPOLE MOMENT
-------------
                                X             Y             Z
Electronic contribution:      1.61884       3.40903       6.23392
Nuclear contribution   :     -1.60041      -3.44211      -6.31837
                        -----------------------------------------
Total Dipole Moment    :      0.01842      -0.03309      -0.08445
                        -----------------------------------------
Magnitude (a.u.)       :      0.09255
Magnitude (Debye)      :      0.23525


Timings for individual modules:

Sum of individual times         ...     1654.526 sec (=  27.575 min)
GTO integral calculation        ...        4.590 sec (=   0.076 min)   0.3 %
SCF iterations                  ...     1558.056 sec (=  25.968 min)  94.2 %
SCF Gradient evaluation         ...       91.880 sec (=   1.531 min)   5.6 %
                             ****ORCA TERMINATED NORMALLY****
TOTAL RUN TIME: 0 days 0 hours 27 minutes 36 seconds 627 msec
